s 127.937314222 _0_ MAC  --- 0 AODV 106 [0 ffffffff 0 800] ------- [0:255 -1:255 30 0] [0x2 1 1 [2 0] [0 4]] (REQUEST)
s 127.939421175 _24_ MAC  --- 0 AODV 106 [0 ffffffff 18 800] ------- [24:255 -1:255 29 0] [0x2 2 1 [2 0] [0 4]] (REQUEST)
s 127.940419600 _6_ MAC  --- 0 AODV 106 [0 ffffffff 6 800] ------- [6:255 -1:255 29 0] [0x2 2 1 [2 0] [0 4]] (REQUEST)
s 127.941318381 _5_ MAC  --- 0 AODV 106 [0 ffffffff 5 800] ------- [5:255 -1:255 28 0] [0x2 3 1 [2 0] [0 4]] (REQUEST)
s 127.942236983 _9_ MAC  --- 0 AODV 106 [0 ffffffff 9 800] ------- [9:255 -1:255 28 0] [0x2 3 1 [2 0] [0 4]] (REQUEST)
s 127.943195495 _7_ MAC  --- 0 AODV 106 [0 ffffffff 7 800] ------- [7:255 -1:255 29 0] [0x2 2 1 [2 0] [0 4]] (REQUEST)
s 127.944134034 _48_ MAC  --- 0 AODV 106 [0 ffffffff 30 800] ------- [48:255 -1:255 29 0] [0x2 2 1 [2 0] [0 4]] (REQUEST)
s 127.945052737 _1_ MAC  --- 0 AODV 106 [0 ffffffff 1 800] ------- [1:255 -1:255 28 0] [0x2 3 1 [2 0] [0 4]] (REQUEST)
s 127.945899548 _35_ MAC  --- 0 AODV 106 [0 ffffffff 23 800] ------- [35:255 -1:255 28 0] [0x2 3 1 [2 0] [0 4]] (REQUEST)
s 127.946150895 _20_ MAC  --- 0 AODV 106 [0 ffffffff 14 800] ------- [20:255 -1:255 27 0] [0x2 4 1 [2 0] [0 4]] (REQUEST)
s 127.947137745 _47_ MAC  --- 0 AODV 106 [0 ffffffff 2f 800] ------- [47:255 -1:255 28 0] [0x2 3 1 [2 0] [0 4]] (REQUEST)
s 127.948076161 _16_ MAC  --- 0 AODV 106 [0 ffffffff 10 800] ------- [16:255 -1:255 29 0] [0x2 2 1 [2 0] [0 4]] (REQUEST)
s 127.949054622 _21_ MAC  --- 0 AODV 106 [0 ffffffff 15 800] ------- [21:255 -1:255 29 0] [0x2 2 1 [2 0] [0 4]] (REQUEST)
s 127.949953147 _17_ MAC  --- 0 AODV 106 [0 ffffffff 11 800] ------- [17:255 -1:255 29 0] [0x2 2 1 [2 0] [0 4]] (REQUEST)
s 127.950871523 _42_ MAC  --- 0 AODV 106 [0 ffffffff 2a 800] ------- [42:255 -1:255 28 0] [0x2 3 1 [2 0] [0 4]] (REQUEST)
s 127.951849857 _32_ MAC  --- 0 AODV 106 [0 ffffffff 20 800] ------- [32:255 -1:255 28 0] [0x2 3 1 [2 0] [0 4]] (REQUEST)
s 127.951850246 _18_ MAC  --- 0 AODV 106 [0 ffffffff 12 800] ------- [18:255 -1:255 29 0] [0x2 2 1 [2 0] [0 4]] (REQUEST)
s 127.953113177 _22_ MAC  --- 0 AODV 106 [0 ffffffff 16 800] ------- [22:255 -1:255 27 0] [0x2 4 1 [2 0] [0 4]] (REQUEST)
s 127.953133590 _3_ MAC  --- 0 AODV 106 [0 ffffffff 3 800] ------- [3:255 -1:255 28 0] [0x2 3 1 [2 0] [0 4]] (REQUEST)
s 127.954211264 _25_ MAC  --- 0 AODV 106 [0 ffffffff 19 800] ------- [25:255 -1:255 27 0] [0x2 4 1 [2 0] [0 4]] (REQUEST)
s 127.954416480 _14_ MAC  --- 0 AODV 106 [0 ffffffff e 800] ------- [14:255 -1:255 28 0] [0x2 3 1 [2 0] [0 4]] (REQUEST)
s 127.955269393 _49_ MAC  --- 0 AODV 106 [0 ffffffff 31 800] ------- [49:255 -1:255 28 0] [0x2 3 1 [2 0] [0 4]] (REQUEST)
s 127.956228073 _19_ MAC  --- 0 AODV 106 [0 ffffffff 13 800] ------- [19:255 -1:255 27 0] [0x2 4 1 [2 0] [0 4]] (REQUEST)
s 127.957166490 _11_ MAC  --- 0 AODV 106 [0 ffffffff b 800] ------- [11:255 -1:255 29 0] [0x2 2 1 [2 0] [0 4]] (REQUEST)
s 127.957166722 _8_ MAC  --- 0 AODV 106 [0 ffffffff 8 800] ------- [8:255 -1:255 29 0] [0x2 2 1 [2 0] [0 4]] (REQUEST)
s 127.957166861 _39_ MAC  --- 0 AODV 106 [0 ffffffff 27 800] ------- [39:255 -1:255 29 0] [0x2 2 1 [2 0] [0 4]] (REQUEST)
s 127.958449276 _30_ MAC  --- 0 AODV 106 [0 ffffffff 1e 800] ------- [30:255 -1:255 29 0] [0x2 2 1 [2 0] [0 4]] (REQUEST)
s 127.959367626 _46_ MAC  --- 0 AODV 106 [0 ffffffff 2e 800] ------- [46:255 -1:255 29 0] [0x2 2 1 [2 0] [0 4]] (REQUEST)
s 127.960286179 _43_ MAC  --- 0 AODV 106 [0 ffffffff 2b 800] ------- [43:255 -1:255 29 0] [0x2 2 1 [2 0] [0 4]] (REQUEST)
s 127.960931075 _31_ MAC  --- 0 AODV 106 [0 ffffffff 1f 800] ------- [31:255 -1:255 27 0] [0x2 4 1 [2 0] [0 4]] (REQUEST)
s 127.961264274 _4_ MAC  --- 0 AODV 106 [0 ffffffff 4 800] ------- [4:255 -1:255 29 0] [0x2 2 1 [2 0] [0 4]] (REQUEST)
s 127.961849497 _37_ MAC  --- 0 AODV 106 [0 ffffffff 25 800] ------- [37:255 -1:255 27 0] [0x2 4 1 [2 0] [0 4]] (REQUEST)
s 127.962243081 _38_ MAC  --- 0 AODV 106 [0 ffffffff 26 800] ------- [38:255 -1:255 29 0] [0x2 2 1 [2 0] [0 4]] (REQUEST)
s 127.963161413 _27_ MAC  --- 0 AODV 106 [0 ffffffff 1b 800] ------- [27:255 -1:255 29 0] [0x2 2 1 [2 0] [0 4]] (REQUEST)
s 127.964119570 _41_ MAC  --- 0 AODV 106 [0 ffffffff 29 800] ------- [41:255 -1:255 29 0] [0x2 2 1 [2 0] [0 4]] (REQUEST)
s 127.964119832 _15_ MAC  --- 0 AODV 106 [0 ffffffff f 800] ------- [15:255 -1:255 29 0] [0x2 2 1 [2 0] [0 4]] (REQUEST)
s 127.965462322 _45_ MAC  --- 0 AODV 106 [0 ffffffff 2d 800] ------- [45:255 -1:255 29 0] [0x2 2 1 [2 0] [0 4]] (REQUEST)
s 127.965462597 _26_ MAC  --- 0 AODV 106 [0 ffffffff 1a 800] ------- [26:255 -1:255 29 0] [0x2 2 1 [2 0] [0 4]] (REQUEST)
s 127.965462666 _28_ MAC  --- 0 AODV 106 [0 ffffffff 1c 800] ------- [28:255 -1:255 28 0] [0x2 3 1 [2 0] [0 4]] (REQUEST)
s 127.966745879 _34_ MAC  --- 0 AODV 106 [0 ffffffff 22 800] ------- [34:255 -1:255 29 0] [0x2 2 1 [2 0] [0 4]] (REQUEST)
s 127.967724092 _36_ MAC  --- 0 AODV 106 [0 ffffffff 24 800] ------- [36:255 -1:255 29 0] [0x2 2 1 [2 0] [0 4]] (REQUEST)
s 127.968169574 _44_ MAC  --- 0 AODV 106 [0 ffffffff 2c 800] ------- [44:255 -1:255 27 0] [0x2 4 1 [2 0] [0 4]] (REQUEST)
s 127.969452915 _29_ MAC  --- 0 AODV 106 [0 ffffffff 1d 800] ------- [29:255 -1:255 29 0] [0x2 2 1 [2 0] [0 4]] (REQUEST)
s 127.970471729 _13_ MAC  --- 0 AODV 106 [0 ffffffff d 800] ------- [13:255 -1:255 28 0] [0x2 3 1 [2 0] [0 4]] (REQUEST)
s 127.970896374 _40_ MAC  --- 0 AODV 106 [0 ffffffff 28 800] ------- [40:255 -1:255 28 0] [0x2 3 1 [2 0] [0 4]] (REQUEST)
s 127.972179768 _12_ MAC  --- 0 AODV 106 [0 ffffffff c 800] ------- [12:255 -1:255 29 0] [0x2 2 1 [2 0] [0 4]] (REQUEST)
s 127.973198357 _23_ MAC  --- 0 AODV 106 [0 ffffffff 17 800] ------- [23:255 -1:255 29 0] [0x2 2 1 [2 0] [0 4]] (REQUEST)
s 127.974236970 _33_ MAC  --- 0 AODV 106 [0 ffffffff 21 800] ------- [33:255 -1:255 29 0] [0x2 2 1 [2 0] [0 4]] (REQUEST)
s 127.975580743 _59_ MAC  --- 0 AODV 106 [0 ffffffff 3b 800] ------- [59:255 -1:255 27 0] [0x2 4 1 [2 0] [0 4]] (REQUEST)
s 127.976718743 _63_ MAC  --- 0 AODV 106 [0 ffffffff 3f 800] ------- [63:255 -1:255 27 0] [0x2 4 1 [2 0] [0 4]] (REQUEST)
s 127.977616743 _60_ MAC  --- 0 AODV 106 [0 ffffffff 3c 800] ------- [60:255 -1:255 27 0] [0x2 4 1 [2 0] [0 4]] (REQUEST)
s 127.978534743 _53_ MAC  --- 0 AODV 106 [0 ffffffff 35 800] ------- [53:255 -1:255 27 0] [0x2 4 1 [2 0] [0 4]] (REQUEST)
s 127.979472743 _51_ MAC  --- 0 AODV 106 [0 ffffffff 33 800] ------- [51:255 -1:255 27 0] [0x2 4 1 [2 0] [0 4]] (REQUEST)
s 127.980410743 _50_ MAC  --- 0 AODV 106 [0 ffffffff 32 800] ------- [50:255 -1:255 27 0] [0x2 4 1 [2 0] [0 4]] (REQUEST)
s 127.981308743 _62_ MAC  --- 0 AODV 106 [0 ffffffff 3e 800] ------- [62:255 -1:255 27 0] [0x2 4 1 [2 0] [0 4]] (REQUEST)
s 127.982226743 _56_ MAC  --- 0 AODV 106 [0 ffffffff 38 800] ------- [56:255 -1:255 27 0] [0x2 4 1 [2 0] [0 4]] (REQUEST)
s 127.983264743 _54_ MAC  --- 0 AODV 106 [0 ffffffff 36 800] ------- [54:255 -1:255 27 0] [0x2 4 1 [2 0] [0 4]] (REQUEST)
s 127.984282743 _55_ MAC  --- 0 AODV 106 [0 ffffffff 37 800] ------- [55:255 -1:255 27 0] [0x2 4 1 [2 0] [0 4]] (REQUEST)
s 127.985300743 _52_ MAC  --- 0 AODV 106 [0 ffffffff 34 800] ------- [52:255 -1:255 27 0] [0x2 4 1 [2 0] [0 4]] (REQUEST)
s 127.986378743 _61_ MAC  --- 0 AODV 106 [0 ffffffff 3d 800] ------- [61:255 -1:255 27 0] [0x2 4 1 [2 0] [0 4]] (REQUEST)
s 127.987316743 _58_ MAC  --- 0 AODV 106 [0 ffffffff 3a 800] ------- [58:255 -1:255 27 0] [0x2 4 1 [2 0] [0 4]] (REQUEST)
s 127.987316743 _57_ MAC  --- 0 AODV 106 [0 ffffffff 39 800] ------- [57:255 -1:255 27 0] [0x2 4 1 [2 0] [0 4]] (REQUEST)
s 127.988639707 _10_ MAC  --- 0 AODV 106 [0 ffffffff a 800] ------- [10:255 -1:255 29 0] [0x2 2 1 [2 0] [0 4]] (REQUEST)
s 127.992645821 _2_ MAC  --- 0 AODV 102 [13a 0 2 800] ------- [2:255 0:255 30 0] [0x4 1 [2 4] 10.000000] (REPLY)
s 142.973020063 _0_ MAC  --- 0 AODV 90 [0 ffffffff 0 800] ------- [0:255 -1:255 1 0] [0x8 1 [2 0] 0.000000] (ERROR)
s 148.543107693 _0_ MAC  --- 0 AODV 106 [0 ffffffff 0 800] ------- [0:255 -1:255 3 0] [0x2 1 2 [2 5] [0 8]] (REQUEST)
s 148.544989555 _27_ MAC  --- 0 AODV 106 [0 ffffffff 1b 800] ------- [27:255 -1:255 2 0] [0x2 2 2 [2 5] [0 8]] (REQUEST)
s 148.546148273 _7_ MAC  --- 0 AODV 106 [0 ffffffff 7 800] ------- [7:255 -1:255 2 0] [0x2 2 2 [2 5] [0 8]] (REQUEST)
s 148.547449914 _15_ MAC  --- 0 AODV 106 [0 ffffffff f 800] ------- [15:255 -1:255 2 0] [0x2 2 2 [2 5] [0 8]] (REQUEST)
s 148.548548241 _16_ MAC  --- 0 AODV 106 [0 ffffffff 10 800] ------- [16:255 -1:255 2 0] [0x2 2 2 [2 5] [0 8]] (REQUEST)
s 148.549671422 _34_ MAC  --- 0 AODV 106 [0 ffffffff 22 800] ------- [34:255 -1:255 2 0] [0x2 2 2 [2 5] [0 8]] (REQUEST)
s 148.550609674 _39_ MAC  --- 0 AODV 106 [0 ffffffff 27 800] ------- [39:255 -1:255 2 0] [0x2 2 2 [2 5] [0 8]] (REQUEST)
s 148.550609888 _24_ MAC  --- 0 AODV 106 [0 ffffffff 18 800] ------- [24:255 -1:255 2 0] [0x2 2 2 [2 5] [0 8]] (REQUEST)
s 148.550610154 _48_ MAC  --- 0 AODV 106 [0 ffffffff 30 800] ------- [48:255 -1:255 2 0] [0x2 2 2 [2 5] [0 8]] (REQUEST)
s 148.551873202 _17_ MAC  --- 0 AODV 106 [0 ffffffff 11 800] ------- [17:255 -1:255 1 0] [0x2 3 2 [2 5] [0 8]] (REQUEST)
s 148.552931820 _26_ MAC  --- 0 AODV 106 [0 ffffffff 1a 800] ------- [26:255 -1:255 2 0] [0x2 2 2 [2 5] [0 8]] (REQUEST)
s 148.553910516 _12_ MAC  --- 0 AODV 106 [0 ffffffff c 800] ------- [12:255 -1:255 2 0] [0x2 2 2 [2 5] [0 8]] (REQUEST)
s 148.554828553 _45_ MAC  --- 0 AODV 106 [0 ffffffff 2d 800] ------- [45:255 -1:255 2 0] [0x2 2 2 [2 5] [0 8]] (REQUEST)
s 148.555747272 _10_ MAC  --- 0 AODV 106 [0 ffffffff a 800] ------- [10:255 -1:255 2 0] [0x2 2 2 [2 5] [0 8]] (REQUEST)
s 148.556685890 _14_ MAC  --- 0 AODV 106 [0 ffffffff e 800] ------- [14:255 -1:255 2 0] [0x2 2 2 [2 5] [0 8]] (REQUEST)
s 148.557110819 _13_ MAC  --- 0 AODV 106 [0 ffffffff d 800] ------- [13:255 -1:255 1 0] [0x2 3 2 [2 5] [0 8]] (REQUEST)
s 148.558028873 _40_ MAC  --- 0 AODV 106 [0 ffffffff 28 800] ------- [40:255 -1:255 2 0] [0x2 2 2 [2 5] [0 8]] (REQUEST)
s 148.558249460 _44_ MAC  --- 0 AODV 106 [0 ffffffff 2c 800] ------- [44:255 -1:255 1 0] [0x2 3 2 [2 5] [0 8]] (REQUEST)
s 148.559248103 _31_ MAC  --- 0 AODV 106 [0 ffffffff 1f 800] ------- [31:255 -1:255 1 0] [0x2 3 2 [2 5] [0 8]] (REQUEST)
s 148.560406711 _21_ MAC  --- 0 AODV 106 [0 ffffffff 15 800] ------- [21:255 -1:255 1 0] [0x2 3 2 [2 5] [0 8]] (REQUEST)
s 148.560442851 _54_ MAC  --- 0 AODV 106 [0 ffffffff 36 800] ------- [54:255 -1:255 1 0] [0x2 3 2 [2 5] [0 8]] (REQUEST)
s 148.561345152 _42_ MAC  --- 0 AODV 106 [0 ffffffff 2a 800] ------- [42:255 -1:255 1 0] [0x2 3 2 [2 5] [0 8]] (REQUEST)
s 148.561540851 _62_ MAC  --- 0 AODV 106 [0 ffffffff 3e 800] ------- [62:255 -1:255 1 0] [0x2 3 2 [2 5] [0 8]] (REQUEST)
s 148.562263869 _47_ MAC  --- 0 AODV 106 [0 ffffffff 2f 800] ------- [47:255 -1:255 1 0] [0x2 3 2 [2 5] [0 8]] (REQUEST)
s 148.562438851 _63_ MAC  --- 0 AODV 106 [0 ffffffff 3f 800] ------- [63:255 -1:255 1 0] [0x2 3 2 [2 5] [0 8]] (REQUEST)
s 148.563008499 _20_ MAC  --- 0 AODV 106 [0 ffffffff 14 800] ------- [20:255 -1:255 1 0] [0x2 3 2 [2 5] [0 8]] (REQUEST)
s 148.563261993 _29_ MAC  --- 0 AODV 106 [0 ffffffff 1d 800] ------- [29:255 -1:255 1 0] [0x2 3 2 [2 5] [0 8]] (REQUEST)
s 148.563356851 _60_ MAC  --- 0 AODV 106 [0 ffffffff 3c 800] ------- [60:255 -1:255 1 0] [0x2 3 2 [2 5] [0 8]] (REQUEST)
s 148.564314851 _52_ MAC  --- 0 AODV 106 [0 ffffffff 34 800] ------- [52:255 -1:255 1 0] [0x2 3 2 [2 5] [0 8]] (REQUEST)
s 148.564314851 _50_ MAC  --- 0 AODV 106 [0 ffffffff 32 800] ------- [50:255 -1:255 1 0] [0x2 3 2 [2 5] [0 8]] (REQUEST)
s 148.564340151 _35_ MAC  --- 0 AODV 106 [0 ffffffff 23 800] ------- [35:255 -1:255 1 0] [0x2 3 2 [2 5] [0 8]] (REQUEST)
s 148.565616851 _51_ MAC  --- 0 AODV 106 [0 ffffffff 33 800] ------- [51:255 -1:255 1 0] [0x2 3 2 [2 5] [0 8]] (REQUEST)
s 148.565683079 _28_ MAC  --- 0 AODV 106 [0 ffffffff 1c 800] ------- [28:255 -1:255 1 0] [0x2 3 2 [2 5] [0 8]] (REQUEST)
s 148.565683565 _32_ MAC  --- 0 AODV 106 [0 ffffffff 20 800] ------- [32:255 -1:255 1 0] [0x2 3 2 [2 5] [0 8]] (REQUEST)
s 148.566574851 _56_ MAC  --- 0 AODV 106 [0 ffffffff 38 800] ------- [56:255 -1:255 1 0] [0x2 3 2 [2 5] [0 8]] (REQUEST)
s 148.567105951 _33_ MAC  --- 0 AODV 106 [0 ffffffff 21 800] ------- [33:255 -1:255 2 0] [0x2 2 2 [2 5] [0 8]] (REQUEST)
s 148.567592851 _53_ MAC  --- 0 AODV 106 [0 ffffffff 35 800] ------- [53:255 -1:255 1 0] [0x2 3 2 [2 5] [0 8]] (REQUEST)
s 148.568550851 _55_ MAC  --- 0 AODV 106 [0 ffffffff 37 800] ------- [55:255 -1:255 1 0] [0x2 3 2 [2 5] [0 8]] (REQUEST)
s 148.569488851 _61_ MAC  --- 0 AODV 106 [0 ffffffff 3d 800] ------- [61:255 -1:255 1 0] [0x2 3 2 [2 5] [0 8]] (REQUEST)
s 148.570466851 _57_ MAC  --- 0 AODV 106 [0 ffffffff 39 800] ------- [57:255 -1:255 1 0] [0x2 3 2 [2 5] [0 8]] (REQUEST)
s 148.571424851 _59_ MAC  --- 0 AODV 106 [0 ffffffff 3b 800] ------- [59:255 -1:255 1 0] [0x2 3 2 [2 5] [0 8]] (REQUEST)
s 148.572562851 _58_ MAC  --- 0 AODV 106 [0 ffffffff 3a 800] ------- [58:255 -1:255 1 0] [0x2 3 2 [2 5] [0 8]] (REQUEST)
s 148.573846440 _6_ MAC  --- 0 AODV 106 [0 ffffffff 6 800] ------- [6:255 -1:255 2 0] [0x2 2 2 [2 5] [0 8]] (REQUEST)
s 148.573846615 _19_ MAC  --- 0 AODV 106 [0 ffffffff 13 800] ------- [19:255 -1:255 1 0] [0x2 3 2 [2 5] [0 8]] (REQUEST)
s 148.575129923 _23_ MAC  --- 0 AODV 106 [0 ffffffff 17 800] ------- [23:255 -1:255 2 0] [0x2 2 2 [2 5] [0 8]] (REQUEST)
s 148.576048595 _9_ MAC  --- 0 AODV 106 [0 ffffffff 9 800] ------- [9:255 -1:255 2 0] [0x2 2 2 [2 5] [0 8]] (REQUEST)
s 148.576048734 _8_ MAC  --- 0 AODV 106 [0 ffffffff 8 800] ------- [8:255 -1:255 2 0] [0x2 2 2 [2 5] [0 8]] (REQUEST)
s 148.577391513 _46_ MAC  --- 0 AODV 106 [0 ffffffff 2e 800] ------- [46:255 -1:255 2 0] [0x2 2 2 [2 5] [0 8]] (REQUEST)
s 148.578309643 _41_ MAC  --- 0 AODV 106 [0 ffffffff 29 800] ------- [41:255 -1:255 2 0] [0x2 2 2 [2 5] [0 8]] (REQUEST)
s 148.579288298 _11_ MAC  --- 0 AODV 106 [0 ffffffff b 800] ------- [11:255 -1:255 1 0] [0x2 3 2 [2 5] [0 8]] (REQUEST)
s 148.579288362 _43_ MAC  --- 0 AODV 106 [0 ffffffff 2b 800] ------- [43:255 -1:255 1 0] [0x2 3 2 [2 5] [0 8]] (REQUEST)
s 148.580630842 _4_ MAC  --- 0 AODV 106 [0 ffffffff 4 800] ------- [4:255 -1:255 1 0] [0x2 3 2 [2 5] [0 8]] (REQUEST)
s 148.581589377 _18_ MAC  --- 0 AODV 106 [0 ffffffff 12 800] ------- [18:255 -1:255 2 0] [0x2 2 2 [2 5] [0 8]] (REQUEST)
s 148.582507753 _49_ MAC  --- 0 AODV 106 [0 ffffffff 31 800] ------- [49:255 -1:255 1 0] [0x2 3 2 [2 5] [0 8]] (REQUEST)
s 148.583486293 _30_ MAC  --- 0 AODV 106 [0 ffffffff 1e 800] ------- [30:255 -1:255 2 0] [0x2 2 2 [2 5] [0 8]] (REQUEST)
s 148.584424697 _36_ MAC  --- 0 AODV 106 [0 ffffffff 24 800] ------- [36:255 -1:255 2 0] [0x2 2 2 [2 5] [0 8]] (REQUEST)
s 148.585343376 _38_ MAC  --- 0 AODV 106 [0 ffffffff 26 800] ------- [38:255 -1:255 2 0] [0x2 2 2 [2 5] [0 8]] (REQUEST)
s 148.586686546 _22_ MAC  --- 0 AODV 106 [0 ffffffff 16 800] ------- [22:255 -1:255 1 0] [0x2 3 2 [2 5] [0 8]] (REQUEST)
s 149.000095000 _0_ MAC  --- 0 AODV 106 [0 ffffffff 0 800] ------- [0:255 -1:255 5 0] [0x2 1 3 [2 5] [0 10]] (REQUEST)
s 149.001616962 _45_ MAC  --- 0 AODV 106 [0 ffffffff 2d 800] ------- [45:255 -1:255 4 0] [0x2 2 3 [2 5] [0 10]] (REQUEST)
s 149.002595001 _12_ MAC  --- 0 AODV 106 [0 ffffffff c 800] ------- [12:255 -1:255 4 0] [0x2 2 3 [2 5] [0 10]] (REQUEST)
s 149.004392041 _5_ MAC  --- 0 AODV 106 [0 ffffffff 5 800] ------- [5:255 -1:255 3 0] [0x2 3 3 [2 5] [0 10]] (REQUEST)
s 149.005310696 _42_ MAC  --- 0 AODV 106 [0 ffffffff 2a 800] ------- [42:255 -1:255 3 0] [0x2 3 3 [2 5] [0 10]] (REQUEST)
s 149.006229333 _32_ MAC  --- 0 AODV 106 [0 ffffffff 20 800] ------- [32:255 -1:255 3 0] [0x2 3 3 [2 5] [0 10]] (REQUEST)
s 149.007208109 _7_ MAC  --- 0 AODV 106 [0 ffffffff 7 800] ------- [7:255 -1:255 4 0] [0x2 2 3 [2 5] [0 10]] (REQUEST)
s 149.008126929 _9_ MAC  --- 0 AODV 106 [0 ffffffff 9 800] ------- [9:255 -1:255 4 0] [0x2 2 3 [2 5] [0 10]] (REQUEST)
s 149.009065598 _23_ MAC  --- 0 AODV 106 [0 ffffffff 17 800] ------- [23:255 -1:255 4 0] [0x2 2 3 [2 5] [0 10]] (REQUEST)
s 149.009984001 _6_ MAC  --- 0 AODV 106 [0 ffffffff 6 800] ------- [6:255 -1:255 4 0] [0x2 2 3 [2 5] [0 10]] (REQUEST)
s 149.010982739 _24_ MAC  --- 0 AODV 106 [0 ffffffff 18 800] ------- [24:255 -1:255 4 0] [0x2 2 3 [2 5] [0 10]] (REQUEST)
s 149.011901128 _30_ MAC  --- 0 AODV 106 [0 ffffffff 1e 800] ------- [30:255 -1:255 4 0] [0x2 2 3 [2 5] [0 10]] (REQUEST)
s 149.012819906 _29_ MAC  --- 0 AODV 106 [0 ffffffff 1d 800] ------- [29:255 -1:255 3 0] [0x2 3 3 [2 5] [0 10]] (REQUEST)
s 149.013204265 _14_ MAC  --- 0 AODV 106 [0 ffffffff e 800] ------- [14:255 -1:255 4 0] [0x2 2 3 [2 5] [0 10]] (REQUEST)
s 149.014018532 _31_ MAC  --- 0 AODV 106 [0 ffffffff 1f 800] ------- [31:255 -1:255 2 0] [0x2 4 3 [2 5] [0 10]] (REQUEST)
s 149.014807255 _40_ MAC  --- 0 AODV 106 [0 ffffffff 28 800] ------- [40:255 -1:255 4 0] [0x2 2 3 [2 5] [0 10]] (REQUEST)
s 149.015277174 _44_ MAC  --- 0 AODV 106 [0 ffffffff 2c 800] ------- [44:255 -1:255 3 0] [0x2 3 3 [2 5] [0 10]] (REQUEST)
s 149.016152546 _52_ MAC  --- 0 AODV 106 [0 ffffffff 34 800] ------- [52:255 -1:255 3 0] [0x2 3 3 [2 5] [0 10]] (REQUEST)
s 149.016275547 _28_ MAC  --- 0 AODV 106 [0 ffffffff 1c 800] ------- [28:255 -1:255 3 0] [0x2 3 3 [2 5] [0 10]] (REQUEST)
s 149.017110546 _59_ MAC  --- 0 AODV 106 [0 ffffffff 3b 800] ------- [59:255 -1:255 3 0] [0x2 3 3 [2 5] [0 10]] (REQUEST)
s 149.017213975 _21_ MAC  --- 0 AODV 106 [0 ffffffff 15 800] ------- [21:255 -1:255 3 0] [0x2 3 3 [2 5] [0 10]] (REQUEST)
s 149.018168546 _57_ MAC  --- 0 AODV 106 [0 ffffffff 39 800] ------- [57:255 -1:255 3 0] [0x2 3 3 [2 5] [0 10]] (REQUEST)
s 149.018352605 _33_ MAC  --- 0 AODV 106 [0 ffffffff 21 800] ------- [33:255 -1:255 4 0] [0x2 2 3 [2 5] [0 10]] (REQUEST)
s 149.019206546 _56_ MAC  --- 0 AODV 106 [0 ffffffff 38 800] ------- [56:255 -1:255 3 0] [0x2 3 3 [2 5] [0 10]] (REQUEST)
s 149.019290813 _17_ MAC  --- 0 AODV 106 [0 ffffffff 11 800] ------- [17:255 -1:255 3 0] [0x2 3 3 [2 5] [0 10]] (REQUEST)
s 149.020209187 _1_ MAC  --- 0 AODV 106 [0 ffffffff 1 800] ------- [1:255 -1:255 3 0] [0x2 3 3 [2 5] [0 10]] (REQUEST)
s 149.020264546 _60_ MAC  --- 0 AODV 106 [0 ffffffff 3c 800] ------- [60:255 -1:255 3 0] [0x2 3 3 [2 5] [0 10]] (REQUEST)
s 149.021202546 _63_ MAC  --- 0 AODV 106 [0 ffffffff 3f 800] ------- [63:255 -1:255 3 0] [0x2 3 3 [2 5] [0 10]] (REQUEST)
s 149.021552221 _37_ MAC  --- 0 AODV 106 [0 ffffffff 25 800] ------- [37:255 -1:255 2 0] [0x2 4 3 [2 5] [0 10]] (REQUEST)
s 149.021552635 _47_ MAC  --- 0 AODV 106 [0 ffffffff 2f 800] ------- [47:255 -1:255 2 0] [0x2 4 3 [2 5] [0 10]] (REQUEST)
s 149.021552949 _25_ MAC  --- 0 AODV 106 [0 ffffffff 19 800] ------- [25:255 -1:255 3 0] [0x2 3 3 [2 5] [0 10]] (REQUEST)
s 149.022140546 _61_ MAC  --- 0 AODV 106 [0 ffffffff 3d 800] ------- [61:255 -1:255 3 0] [0x2 3 3 [2 5] [0 10]] (REQUEST)
s 149.022875702 _20_ MAC  --- 0 AODV 106 [0 ffffffff 14 800] ------- [20:255 -1:255 2 0] [0x2 4 3 [2 5] [0 10]] (REQUEST)
s 149.022935464 _35_ MAC  --- 0 AODV 106 [0 ffffffff 23 800] ------- [35:255 -1:255 3 0] [0x2 3 3 [2 5] [0 10]] (REQUEST)
s 149.023178546 _51_ MAC  --- 0 AODV 106 [0 ffffffff 33 800] ------- [51:255 -1:255 3 0] [0x2 3 3 [2 5] [0 10]] (REQUEST)
s 149.024076546 _55_ MAC  --- 0 AODV 106 [0 ffffffff 37 800] ------- [55:255 -1:255 3 0] [0x2 3 3 [2 5] [0 10]] (REQUEST)
s 149.024238233 _13_ MAC  --- 0 AODV 106 [0 ffffffff d 800] ------- [13:255 -1:255 2 0] [0x2 4 3 [2 5] [0 10]] (REQUEST)
s 149.025074546 _50_ MAC  --- 0 AODV 106 [0 ffffffff 32 800] ------- [50:255 -1:255 3 0] [0x2 3 3 [2 5] [0 10]] (REQUEST)
s 149.025074546 _62_ MAC  --- 0 AODV 106 [0 ffffffff 3e 800] ------- [62:255 -1:255 3 0] [0x2 3 3 [2 5] [0 10]] (REQUEST)
s 149.026397653 _27_ MAC  --- 0 AODV 106 [0 ffffffff 1b 800] ------- [27:255 -1:255 4 0] [0x2 2 3 [2 5] [0 10]] (REQUEST)
s 149.027315783 _41_ MAC  --- 0 AODV 106 [0 ffffffff 29 800] ------- [41:255 -1:255 4 0] [0x2 2 3 [2 5] [0 10]] (REQUEST)
s 149.027316055 _36_ MAC  --- 0 AODV 106 [0 ffffffff 24 800] ------- [36:255 -1:255 4 0] [0x2 2 3 [2 5] [0 10]] (REQUEST)
s 149.028598732 _38_ MAC  --- 0 AODV 106 [0 ffffffff 26 800] ------- [38:255 -1:255 4 0] [0x2 2 3 [2 5] [0 10]] (REQUEST)
s 149.028598902 _49_ MAC  --- 0 AODV 106 [0 ffffffff 31 800] ------- [49:255 -1:255 3 0] [0x2 3 3 [2 5] [0 10]] (REQUEST)
s 149.028599011 _58_ MAC  --- 0 AODV 106 [0 ffffffff 3a 800] ------- [58:255 -1:255 3 0] [0x2 3 3 [2 5] [0 10]] (REQUEST)
s 149.029881916 _43_ MAC  --- 0 AODV 106 [0 ffffffff 2b 800] ------- [43:255 -1:255 3 0] [0x2 3 3 [2 5] [0 10]] (REQUEST)
s 149.030800709 _18_ MAC  --- 0 AODV 106 [0 ffffffff 12 800] ------- [18:255 -1:255 4 0] [0x2 2 3 [2 5] [0 10]] (REQUEST)
s 149.031719395 _10_ MAC  --- 0 AODV 106 [0 ffffffff a 800] ------- [10:255 -1:255 4 0] [0x2 2 3 [2 5] [0 10]] (REQUEST)
s 149.032698005 _8_ MAC  --- 0 AODV 106 [0 ffffffff 8 800] ------- [8:255 -1:255 4 0] [0x2 2 3 [2 5] [0 10]] (REQUEST)
s 149.033616642 _22_ MAC  --- 0 AODV 106 [0 ffffffff 16 800] ------- [22:255 -1:255 3 0] [0x2 3 3 [2 5] [0 10]] (REQUEST)
s 149.033616705 _15_ MAC  --- 0 AODV 106 [0 ffffffff f 800] ------- [15:255 -1:255 4 0] [0x2 2 3 [2 5] [0 10]] (REQUEST)
s 149.034919749 _19_ MAC  --- 0 AODV 106 [0 ffffffff 13 800] ------- [19:255 -1:255 3 0] [0x2 3 3 [2 5] [0 10]] (REQUEST)
s 149.035060289 _3_ MAC  --- 0 AODV 106 [0 ffffffff 3 800] ------- [3:255 -1:255 3 0] [0x2 3 3 [2 5] [0 10]] (REQUEST)
s 149.036344085 _54_ MAC  --- 0 AODV 106 [0 ffffffff 36 800] ------- [54:255 -1:255 3 0] [0x2 3 3 [2 5] [0 10]] (REQUEST)
s 149.037362085 _53_ MAC  --- 0 AODV 106 [0 ffffffff 35 800] ------- [53:255 -1:255 3 0] [0x2 3 3 [2 5] [0 10]] (REQUEST)
s 149.038645433 _11_ MAC  --- 0 AODV 106 [0 ffffffff b 800] ------- [11:255 -1:255 3 0] [0x2 3 3 [2 5] [0 10]] (REQUEST)
s 149.039643816 _34_ MAC  --- 0 AODV 106 [0 ffffffff 22 800] ------- [34:255 -1:255 4 0] [0x2 2 3 [2 5] [0 10]] (REQUEST)
s 149.040562021 _46_ MAC  --- 0 AODV 106 [0 ffffffff 2e 800] ------- [46:255 -1:255 4 0] [0x2 2 3 [2 5] [0 10]] (REQUEST)
s 149.040562542 _48_ MAC  --- 0 AODV 106 [0 ffffffff 30 800] ------- [48:255 -1:255 4 0] [0x2 2 3 [2 5] [0 10]] (REQUEST)
s 149.041845249 _39_ MAC  --- 0 AODV 106 [0 ffffffff 27 800] ------- [39:255 -1:255 4 0] [0x2 2 3 [2 5] [0 10]] (REQUEST)
s 149.041845751 _4_ MAC  --- 0 AODV 106 [0 ffffffff 4 800] ------- [4:255 -1:255 3 0] [0x2 3 3 [2 5] [0 10]] (REQUEST)
s 149.043188349 _16_ MAC  --- 0 AODV 106 [0 ffffffff 10 800] ------- [16:255 -1:255 4 0] [0x2 2 3 [2 5] [0 10]] (REQUEST)
s 149.044531447 _26_ MAC  --- 0 AODV 106 [0 ffffffff 1a 800] ------- [26:255 -1:255 4 0] [0x2 2 3 [2 5] [0 10]] (REQUEST)
s 149.048875976 _2_ MAC  --- 0 AODV 102 [13a 2d 2 800] ------- [2:255 0:255 30 45] [0x4 1 [2 8] 10.000000] (REPLY)
s 149.053866889 _45_ MAC  --- 0 AODV 102 [13a 0 2d 800] ------- [2:255 0:255 29 0] [0x4 2 [2 8] 10.000000] (REPLY)
s 150.000335000 _1_ MAC  --- 0 AODV 106 [0 ffffffff 1 800] ------- [1:255 -1:255 30 0] [0x2 1 1 [2 0] [1 4]] (REQUEST)
s 150.004213322 _12_ MAC  --- 0 AODV 106 [0 ffffffff c 800] ------- [12:255 -1:255 29 0] [0x2 2 1 [2 0] [1 4]] (REQUEST)
s 150.005535896 _9_ MAC  --- 0 AODV 106 [0 ffffffff 9 800] ------- [9:255 -1:255 29 0] [0x2 2 1 [2 0] [1 4]] (REQUEST)
s 150.006514362 _32_ MAC  --- 0 AODV 106 [0 ffffffff 20 800] ------- [32:255 -1:255 29 0] [0x2 2 1 [2 0] [1 4]] (REQUEST)
s 150.008270615 _2_ MAC  --- 0 AODV 102 [13a 1 2 800] ------- [2:255 1:255 30 1] [0x4 1 [2 10] 10.000000] (REPLY)
s 150.009562117 _28_ MAC  --- 0 AODV 106 [0 ffffffff 1c 800] ------- [28:255 -1:255 29 0] [0x2 2 1 [2 0] [1 4]] (REQUEST)
s 150.010480913 _15_ MAC  --- 0 AODV 106 [0 ffffffff f 800] ------- [15:255 -1:255 28 0] [0x2 3 1 [2 0] [1 4]] (REQUEST)
s 150.011459345 _7_ MAC  --- 0 AODV 106 [0 ffffffff 7 800] ------- [7:255 -1:255 28 0] [0x2 3 1 [2 0] [1 4]] (REQUEST)
s 150.011459350 _6_ MAC  --- 0 AODV 106 [0 ffffffff 6 800] ------- [6:255 -1:255 29 0] [0x2 2 1 [2 0] [1 4]] (REQUEST)
s 150.012762458 _3_ MAC  --- 0 AODV 106 [0 ffffffff 3 800] ------- [3:255 -1:255 29 0] [0x2 2 1 [2 0] [1 4]] (REQUEST)
s 150.013680589 _26_ MAC  --- 0 AODV 106 [0 ffffffff 1a 800] ------- [26:255 -1:255 29 0] [0x2 2 1 [2 0] [1 4]] (REQUEST)
s 150.015517643 _48_ MAC  --- 0 AODV 106 [0 ffffffff 30 800] ------- [48:255 -1:255 28 0] [0x2 3 1 [2 0] [1 4]] (REQUEST)
s 150.018307467 _33_ MAC  --- 0 AODV 106 [0 ffffffff 21 800] ------- [33:255 -1:255 29 0] [0x2 2 1 [2 0] [1 4]] (REQUEST)
s 150.019245970 _5_ MAC  --- 0 AODV 106 [0 ffffffff 5 800] ------- [5:255 -1:255 29 0] [0x2 2 1 [2 0] [1 4]] (REQUEST)
s 150.020204753 _20_ MAC  --- 0 AODV 106 [0 ffffffff 14 800] ------- [20:255 -1:255 29 0] [0x2 2 1 [2 0] [1 4]] (REQUEST)
s 150.020629455 _35_ MAC  --- 0 AODV 106 [0 ffffffff 23 800] ------- [35:255 -1:255 27 0] [0x2 4 1 [2 0] [1 4]] (REQUEST)
s 150.021607633 _29_ MAC  --- 0 AODV 106 [0 ffffffff 1d 800] ------- [29:255 -1:255 27 0] [0x2 4 1 [2 0] [1 4]] (REQUEST)
s 150.022516543 _14_ MAC  --- 0 AODV 106 [0 ffffffff e 800] ------- [14:255 -1:255 28 0] [0x2 3 1 [2 0] [1 4]] (REQUEST)
s 150.022946253 _13_ MAC  --- 0 AODV 106 [0 ffffffff d 800] ------- [13:255 -1:255 28 0] [0x2 3 1 [2 0] [1 4]] (REQUEST)
s 150.023904811 _37_ MAC  --- 0 AODV 106 [0 ffffffff 25 800] ------- [37:255 -1:255 28 0] [0x2 3 1 [2 0] [1 4]] (REQUEST)
s 150.024199549 _40_ MAC  --- 0 AODV 106 [0 ffffffff 28 800] ------- [40:255 -1:255 27 0] [0x2 4 1 [2 0] [1 4]] (REQUEST)
s 150.024843378 _31_ MAC  --- 0 AODV 106 [0 ffffffff 1f 800] ------- [31:255 -1:255 28 0] [0x2 3 1 [2 0] [1 4]] (REQUEST)
s 150.025280827 _59_ MAC  --- 0 AODV 106 [0 ffffffff 3b 800] ------- [59:255 -1:255 26 0] [0x2 5 1 [2 0] [1 4]] (REQUEST)
s 150.025922020 _44_ MAC  --- 0 AODV 106 [0 ffffffff 2c 800] ------- [44:255 -1:255 28 0] [0x2 3 1 [2 0] [1 4]] (REQUEST)
s 150.026598827 _63_ MAC  --- 0 AODV 106 [0 ffffffff 3f 800] ------- [63:255 -1:255 26 0] [0x2 5 1 [2 0] [1 4]] (REQUEST)
s 150.026840366 _42_ MAC  --- 0 AODV 106 [0 ffffffff 2a 800] ------- [42:255 -1:255 28 0] [0x2 3 1 [2 0] [1 4]] (REQUEST)
s 150.027676827 _57_ MAC  --- 0 AODV 106 [0 ffffffff 39 800] ------- [57:255 -1:255 26 0] [0x2 5 1 [2 0] [1 4]] (REQUEST)
s 150.027819075 _47_ MAC  --- 0 AODV 106 [0 ffffffff 2f 800] ------- [47:255 -1:255 28 0] [0x2 3 1 [2 0] [1 4]] (REQUEST)
s 150.028654827 _56_ MAC  --- 0 AODV 106 [0 ffffffff 38 800] ------- [56:255 -1:255 26 0] [0x2 5 1 [2 0] [1 4]] (REQUEST)
s 150.028917528 _21_ MAC  --- 0 AODV 106 [0 ffffffff 15 800] ------- [21:255 -1:255 28 0] [0x2 3 1 [2 0] [1 4]] (REQUEST)
s 150.029632827 _52_ MAC  --- 0 AODV 106 [0 ffffffff 34 800] ------- [52:255 -1:255 26 0] [0x2 5 1 [2 0] [1 4]] (REQUEST)
s 150.029632827 _50_ MAC  --- 0 AODV 106 [0 ffffffff 32 800] ------- [50:255 -1:255 26 0] [0x2 5 1 [2 0] [1 4]] (REQUEST)
s 150.029856293 _25_ MAC  --- 0 AODV 106 [0 ffffffff 19 800] ------- [25:255 -1:255 26 0] [0x2 5 1 [2 0] [1 4]] (REQUEST)
s 150.030994827 _61_ MAC  --- 0 AODV 106 [0 ffffffff 3d 800] ------- [61:255 -1:255 26 0] [0x2 5 1 [2 0] [1 4]] (REQUEST)
s 150.031159707 _17_ MAC  --- 0 AODV 106 [0 ffffffff 11 800] ------- [17:255 -1:255 29 0] [0x2 2 1 [2 0] [1 4]] (REQUEST)
s 150.032132827 _58_ MAC  --- 0 AODV 106 [0 ffffffff 3a 800] ------- [58:255 -1:255 26 0] [0x2 5 1 [2 0] [1 4]] (REQUEST)
s 150.033050827 _60_ MAC  --- 0 AODV 106 [0 ffffffff 3c 800] ------- [60:255 -1:255 26 0] [0x2 5 1 [2 0] [1 4]] (REQUEST)
s 150.034128827 _55_ MAC  --- 0 AODV 106 [0 ffffffff 37 800] ------- [55:255 -1:255 26 0] [0x2 5 1 [2 0] [1 4]] (REQUEST)
s 150.034128827 _51_ MAC  --- 0 AODV 106 [0 ffffffff 33 800] ------- [51:255 -1:255 26 0] [0x2 5 1 [2 0] [1 4]] (REQUEST)
s 150.035430827 _54_ MAC  --- 0 AODV 106 [0 ffffffff 36 800] ------- [54:255 -1:255 26 0] [0x2 5 1 [2 0] [1 4]] (REQUEST)
s 150.036528827 _62_ MAC  --- 0 AODV 106 [0 ffffffff 3e 800] ------- [62:255 -1:255 26 0] [0x2 5 1 [2 0] [1 4]] (REQUEST)
s 150.037566827 _53_ MAC  --- 0 AODV 106 [0 ffffffff 35 800] ------- [53:255 -1:255 26 0] [0x2 5 1 [2 0] [1 4]] (REQUEST)
s 150.056034797 _16_ MAC  --- 0 AODV 106 [0 ffffffff 10 800] ------- [16:255 -1:255 27 0] [0x2 4 1 [2 0] [1 4]] (REQUEST)
s 150.056035176 _49_ MAC  --- 0 AODV 106 [0 ffffffff 31 800] ------- [49:255 -1:255 27 0] [0x2 4 1 [2 0] [1 4]] (REQUEST)
s 150.057358012 _36_ MAC  --- 0 AODV 106 [0 ffffffff 24 800] ------- [36:255 -1:255 27 0] [0x2 4 1 [2 0] [1 4]] (REQUEST)
s 150.058276565 _10_ MAC  --- 0 AODV 106 [0 ffffffff a 800] ------- [10:255 -1:255 27 0] [0x2 4 1 [2 0] [1 4]] (REQUEST)
s 150.058276806 _23_ MAC  --- 0 AODV 106 [0 ffffffff 17 800] ------- [23:255 -1:255 28 0] [0x2 3 1 [2 0] [1 4]] (REQUEST)
s 150.058276824 _22_ MAC  --- 0 AODV 106 [0 ffffffff 16 800] ------- [22:255 -1:255 27 0] [0x2 4 1 [2 0] [1 4]] (REQUEST)
s 150.075671938 _19_ MAC  --- 0 AODV 106 [0 ffffffff 13 800] ------- [19:255 -1:255 26 0] [0x2 5 1 [2 0] [1 4]] (REQUEST)
s 150.076710371 _11_ MAC  --- 0 AODV 106 [0 ffffffff b 800] ------- [11:255 -1:255 27 0] [0x2 4 1 [2 0] [1 4]] (REQUEST)
s 150.077648581 _8_ MAC  --- 0 AODV 106 [0 ffffffff 8 800] ------- [8:255 -1:255 27 0] [0x2 4 1 [2 0] [1 4]] (REQUEST)
s 150.077648834 _39_ MAC  --- 0 AODV 106 [0 ffffffff 27 800] ------- [39:255 -1:255 27 0] [0x2 4 1 [2 0] [1 4]] (REQUEST)
s 150.077648965 _24_ MAC  --- 0 AODV 106 [0 ffffffff 18 800] ------- [24:255 -1:255 28 0] [0x2 3 1 [2 0] [1 4]] (REQUEST)
s 150.078931415 _18_ MAC  --- 0 AODV 106 [0 ffffffff 12 800] ------- [18:255 -1:255 27 0] [0x2 4 1 [2 0] [1 4]] (REQUEST)
s 150.079849928 _4_ MAC  --- 0 AODV 106 [0 ffffffff 4 800] ------- [4:255 -1:255 26 0] [0x2 5 1 [2 0] [1 4]] (REQUEST)
s 150.080808353 _30_ MAC  --- 0 AODV 106 [0 ffffffff 1e 800] ------- [30:255 -1:255 27 0] [0x2 4 1 [2 0] [1 4]] (REQUEST)
s 150.080808607 _46_ MAC  --- 0 AODV 106 [0 ffffffff 2e 800] ------- [46:255 -1:255 27 0] [0x2 4 1 [2 0] [1 4]] (REQUEST)
s 150.082788467 _0_ MAC  --- 0 AODV 102 [13a 9 0 800] ------- [0:255 1:255 30 9] [0x4 3 [2 8] 9.000000] (REPLY)
s 150.107022087 _34_ MAC  --- 0 AODV 106 [0 ffffffff 22 800] ------- [34:255 -1:255 27 0] [0x2 4 1 [2 0] [1 4]] (REQUEST)