r 128.001632523 _2_ AGT  --- 0 cbr 532 [13a 2 1 800] ------- [0:0 2:0 29 2] [0] 2 3
r 132.172142232 _2_ AGT  --- 1 cbr 532 [13a 2 1 800] ------- [0:0 2:0 29 2] [1] 2 3
r 135.403976677 _2_ AGT  --- 2 cbr 532 [13a 2 1 800] ------- [0:0 2:0 29 2] [2] 2 3
r 140.997069307 _2_ AGT  --- 3 cbr 532 [13a 2 1 800] ------- [0:0 2:0 29 2] [3] 2 3
r 144.727950824 _2_ AGT  --- 4 cbr 532 [13a 2 1 800] ------- [0:0 2:0 29 2] [4] 2 3
r 148.148724424 _2_ AGT  --- 5 cbr 532 [13a 2 1 800] ------- [0:0 2:0 29 2] [5] 2 3
r 150.002141727 _2_ AGT  --- 6 tcp 40 [13a 2 1 800] ------- [1:0 2:1 30 2] [0 0] 1 2
r 150.007913758 _1_ AGT  --- 7 ack 40 [13a 1 2 800] ------- [2:1 1:0 30 1] [0 0] 1 2
r 150.018299485 _2_ AGT  --- 8 tcp 1040 [13a 2 1 800] ------- [1:0 2:1 30 2] [1 0] 1 2
r 150.028325788 _2_ AGT  --- 9 tcp 1040 [13a 2 1 800] ------- [1:0 2:1 30 2] [2 0] 1 2
r 150.030191515 _1_ AGT  --- 10 ack 40 [13a 1 2 800] ------- [2:1 1:0 30 1] [1 0] 1 2
r 150.040257243 _2_ AGT  --- 12 tcp 1040 [13a 2 1 800] ------- [1:0 2:1 30 2] [3 0] 1 2
r 150.042442970 _1_ AGT  --- 11 ack 40 [13a 1 2 800] ------- [2:1 1:0 30 1] [2 0] 1 2
r 150.052328697 _2_ AGT  --- 13 tcp 1040 [13a 2 1 800] ------- [1:0 2:1 30 2] [4 0] 1 2
r 150.062595000 _2_ AGT  --- 15 tcp 1040 [13a 2 1 800] ------- [1:0 2:1 30 2] [5 0] 1 2
r 150.064480728 _1_ AGT  --- 14 ack 40 [13a 1 2 800] ------- [2:1 1:0 30 1] [3 0] 1 2
r 150.074506455 _2_ AGT  --- 16 tcp 1040 [13a 2 1 800] ------- [1:0 2:1 30 2] [6 0] 1 2
r 150.076592182 _1_ AGT  --- 17 ack 40 [13a 1 2 800] ------- [2:1 1:0 30 1] [4 0] 1 2
r 150.086537910 _2_ AGT  --- 19 tcp 1040 [13a 2 1 800] ------- [1:0 2:1 30 2] [7 0] 1 2
r 150.088783637 _1_ AGT  --- 18 ack 40 [13a 1 2 800] ------- [2:1 1:0 30 1] [5 0] 1 2
r 150.098709364 _2_ AGT  --- 20 tcp 1040 [13a 2 1 800] ------- [1:0 2:1 30 2] [8 0] 1 2
r 150.108975667 _2_ AGT  --- 22 tcp 1040 [13a 2 1 800] ------- [1:0 2:1 30 2] [9 0] 1 2
r 150.110821395 _1_ AGT  --- 21 ack 40 [13a 1 2 800] ------- [2:1 1:0 30 1] [6 0] 1 2
r 150.112647698 _1_ AGT  --- 24 ack 40 [13a 1 2 800] ------- [2:1 1:0 30 1] [7 0] 1 2
r 150.122673425 _2_ AGT  --- 23 tcp 1040 [13a 2 1 800] ------- [1:0 2:1 30 2] [10 0] 1 2
r 150.124699152 _1_ AGT  --- 27 ack 40 [13a 1 2 800] ------- [2:1 1:0 30 1] [8 0] 1 2
r 150.126525456 _1_ AGT  --- 28 ack 40 [13a 1 2 800] ------- [2:1 1:0 30 1] [9 0] 1 2
r 150.136531183 _2_ AGT  --- 25 tcp 1040 [13a 2 1 800] ------- [1:0 2:1 30 2] [11 0] 1 2
r 150.146537486 _2_ AGT  --- 26 tcp 1040 [13a 2 1 800] ------- [1:0 2:1 30 2] [12 0] 1 2
r 150.157909789 _2_ AGT  --- 29 tcp 1040 [13a 2 1 800] ------- [1:0 2:1 30 2] [13 0] 1 2
r 150.167856092 _2_ AGT  --- 30 tcp 1040 [13a 2 1 800] ------- [1:0 2:1 30 2] [14 0] 1 2
r 150.169941819 _1_ AGT  --- 33 ack 40 [13a 1 2 800] ------- [2:1 1:0 30 1] [10 0] 1 2
r 150.179847547 _2_ AGT  --- 31 tcp 1040 [13a 2 1 800] ------- [1:0 2:1 30 2] [15 0] 1 2
r 150.181733274 _1_ AGT  --- 38 ack 40 [13a 1 2 800] ------- [2:1 1:0 30 1] [11 0] 1 2
r 150.183759577 _1_ AGT  --- 39 ack 40 [13a 1 2 800] ------- [2:1 1:0 30 1] [12 0] 1 2
r 150.193605304 _2_ AGT  --- 32 tcp 1040 [13a 2 1 800] ------- [1:0 2:1 30 2] [16 0] 1 2
r 150.195491032 _1_ AGT  --- 40 ack 40 [13a 1 2 800] ------- [2:1 1:0 30 1] [13 0] 1 2
r 150.205396759 _2_ AGT  --- 34 tcp 1040 [13a 2 1 800] ------- [1:0 2:1 30 2] [17 0] 1 2
r 150.207362486 _1_ AGT  --- 41 ack 40 [13a 1 2 800] ------- [2:1 1:0 30 1] [14 0] 1 2
r 150.209528790 _1_ AGT  --- 44 ack 40 [13a 1 2 800] ------- [2:1 1:0 30 1] [15 0] 1 2
r 150.219434517 _2_ AGT  --- 35 tcp 1040 [13a 2 1 800] ------- [1:0 2:1 30 2] [18 0] 1 2
r 150.222767396 _1_ AGT  --- 49 ack 40 [13a 1 2 800] ------- [2:1 1:0 30 1] [16 0] 1 2
r 150.224853699 _1_ AGT  --- 52 ack 40 [13a 1 2 800] ------- [2:1 1:0 30 1] [17 0] 1 2
r 150.234979426 _2_ AGT  --- 36 tcp 1040 [13a 2 1 800] ------- [1:0 2:1 30 2] [19 0] 1 2
r 150.245005729 _2_ AGT  --- 37 tcp 1040 [13a 2 1 800] ------- [1:0 2:1 30 2] [20 0] 1 2
r 150.246871456 _1_ AGT  --- 57 ack 40 [13a 1 2 800] ------- [2:1 1:0 30 1] [18 0] 1 2
r 150.249037760 _1_ AGT  --- 62 ack 40 [13a 1 2 800] ------- [2:1 1:0 30 1] [19 0] 1 2
r 150.250924063 _1_ AGT  --- 63 ack 40 [13a 1 2 800] ------- [2:1 1:0 30 1] [20 0] 1 2
r 150.260829790 _2_ AGT  --- 42 tcp 1040 [13a 2 1 800] ------- [1:0 2:1 30 2] [21 0] 1 2
r 150.262855517 _1_ AGT  --- 68 ack 40 [13a 1 2 800] ------- [2:1 1:0 30 1] [21 0] 1 2
r 150.272841245 _2_ AGT  --- 43 tcp 1040 [13a 2 1 800] ------- [1:0 2:1 30 2] [22 0] 1 2
r 150.275026972 _1_ AGT  --- 70 ack 40 [13a 1 2 800] ------- [2:1 1:0 30 1] [22 0] 1 2
r 150.284992699 _2_ AGT  --- 45 tcp 1040 [13a 2 1 800] ------- [1:0 2:1 30 2] [23 0] 1 2
r 150.295119002 _2_ AGT  --- 46 tcp 1040 [13a 2 1 800] ------- [1:0 2:1 30 2] [24 0] 1 2
r 150.305045305 _2_ AGT  --- 47 tcp 1040 [13a 2 1 800] ------- [1:0 2:1 30 2] [25 0] 1 2
r 150.306891033 _1_ AGT  --- 72 ack 40 [13a 1 2 800] ------- [2:1 1:0 30 1] [23 0] 1 2
r 150.308857336 _1_ AGT  --- 73 ack 40 [13a 1 2 800] ------- [2:1 1:0 30 1] [24 0] 1 2
r 150.319123063 _2_ AGT  --- 48 tcp 1040 [13a 2 1 800] ------- [1:0 2:1 30 2] [26 0] 1 2
r 150.320988790 _1_ AGT  --- 74 ack 40 [13a 1 2 800] ------- [2:1 1:0 30 1] [25 0] 1 2
r 150.331114518 _2_ AGT  --- 50 tcp 1040 [13a 2 1 800] ------- [1:0 2:1 30 2] [27 0] 1 2
r 150.333140245 _1_ AGT  --- 77 ack 40 [13a 1 2 800] ------- [2:1 1:0 30 1] [26 0] 1 2
r 150.343005972 _2_ AGT  --- 51 tcp 1040 [13a 2 1 800] ------- [1:0 2:1 30 2] [28 0] 1 2
r 150.353252275 _2_ AGT  --- 53 tcp 1040 [13a 2 1 800] ------- [1:0 2:1 30 2] [29 0] 1 2
r 150.355218003 _1_ AGT  --- 79 ack 40 [13a 1 2 800] ------- [2:1 1:0 30 1] [27 0] 1 2
r 150.357284306 _1_ AGT  --- 81 ack 40 [13a 1 2 800] ------- [2:1 1:0 30 1] [28 0] 1 2
r 150.359110609 _1_ AGT  --- 82 ack 40 [13a 1 2 800] ------- [2:1 1:0 30 1] [29 0] 1 2
r 150.369156336 _2_ AGT  --- 54 tcp 1040 [13a 2 1 800] ------- [1:0 2:1 30 2] [30 0] 1 2
r 150.378982639 _2_ AGT  --- 55 tcp 1040 [13a 2 1 800] ------- [1:0 2:1 30 2] [31 0] 1 2
r 150.381088367 _1_ AGT  --- 86 ack 40 [13a 1 2 800] ------- [2:1 1:0 30 1] [30 0] 1 2
r 150.391194094 _2_ AGT  --- 56 tcp 1040 [13a 2 1 800] ------- [1:0 2:1 30 2] [32 0] 1 2
r 150.401140397 _2_ AGT  --- 58 tcp 1040 [13a 2 1 800] ------- [1:0 2:1 30 2] [33 0] 1 2
r 150.403086124 _1_ AGT  --- 87 ack 40 [13a 1 2 800] ------- [2:1 1:0 30 1] [31 0] 1 2
r 150.413131852 _2_ AGT  --- 59 tcp 1040 [13a 2 1 800] ------- [1:0 2:1 30 2] [34 0] 1 2
r 150.422958155 _2_ AGT  --- 60 tcp 1040 [13a 2 1 800] ------- [1:0 2:1 30 2] [35 0] 1 2
r 150.425043882 _1_ AGT  --- 89 ack 40 [13a 1 2 800] ------- [2:1 1:0 30 1] [32 0] 1 2
r 150.435009609 _2_ AGT  --- 61 tcp 1040 [13a 2 1 800] ------- [1:0 2:1 30 2] [36 0] 1 2
r 150.437015337 _1_ AGT  --- 90 ack 40 [13a 1 2 800] ------- [2:1 1:0 30 1] [33 0] 1 2
r 150.447081064 _2_ AGT  --- 64 tcp 1040 [13a 2 1 800] ------- [1:0 2:1 30 2] [37 0] 1 2
r 150.457207367 _2_ AGT  --- 65 tcp 1040 [13a 2 1 800] ------- [1:0 2:1 30 2] [38 0] 1 2
r 150.467053670 _2_ AGT  --- 66 tcp 1040 [13a 2 1 800] ------- [1:0 2:1 30 2] [39 0] 1 2
r 150.468899398 _1_ AGT  --- 92 ack 40 [13a 1 2 800] ------- [2:1 1:0 30 1] [34 0] 1 2
r 150.479065125 _2_ AGT  --- 67 tcp 1040 [13a 2 1 800] ------- [1:0 2:1 30 2] [40 0] 1 2
r 150.480930852 _1_ AGT  --- 93 ack 40 [13a 1 2 800] ------- [2:1 1:0 30 1] [35 0] 1 2
r 150.491216579 _2_ AGT  --- 69 tcp 1040 [13a 2 1 800] ------- [1:0 2:1 30 2] [41 0] 1 2
r 150.493162307 _1_ AGT  --- 95 ack 40 [13a 1 2 800] ------- [2:1 1:0 30 1] [36 0] 1 2
r 150.503128034 _2_ AGT  --- 71 tcp 1040 [13a 2 1 800] ------- [1:0 2:1 30 2] [42 0] 1 2
r 150.512994337 _2_ AGT  --- 75 tcp 1040 [13a 2 1 800] ------- [1:0 2:1 30 2] [43 0] 1 2
r 150.514880065 _1_ AGT  --- 97 ack 40 [13a 1 2 800] ------- [2:1 1:0 30 1] [37 0] 1 2
r 150.516746368 _1_ AGT  --- 98 ack 40 [13a 1 2 800] ------- [2:1 1:0 30 1] [38 0] 1 2
r 150.526912095 _2_ AGT  --- 76 tcp 1040 [13a 2 1 800] ------- [1:0 2:1 30 2] [44 0] 1 2
r 150.528777822 _1_ AGT  --- 99 ack 40 [13a 1 2 800] ------- [2:1 1:0 30 1] [39 0] 1 2
r 150.538723550 _2_ AGT  --- 78 tcp 1040 [13a 2 1 800] ------- [1:0 2:1 30 2] [45 0] 1 2
r 150.540569277 _1_ AGT  --- 101 ack 40 [13a 1 2 800] ------- [2:1 1:0 30 1] [40 0] 1 2
r 150.542435580 _1_ AGT  --- 103 ack 40 [13a 1 2 800] ------- [2:1 1:0 30 1] [41 0] 1 2
r 150.544301883 _1_ AGT  --- 105 ack 40 [13a 1 2 800] ------- [2:1 1:0 30 1] [42 0] 1 2
r 150.554527610 _2_ AGT  --- 80 tcp 1040 [13a 2 1 800] ------- [1:0 2:1 30 2] [46 0] 1 2
r 150.556393338 _1_ AGT  --- 106 ack 40 [13a 1 2 800] ------- [2:1 1:0 30 1] [43 0] 1 2
r 150.558359641 _1_ AGT  --- 109 ack 40 [13a 1 2 800] ------- [2:1 1:0 30 1] [44 0] 1 2
r 150.568605368 _2_ AGT  --- 83 tcp 1040 [13a 2 1 800] ------- [1:0 2:1 30 2] [47 0] 1 2
r 150.570551095 _1_ AGT  --- 111 ack 40 [13a 1 2 800] ------- [2:1 1:0 30 1] [45 0] 1 2
r 150.580636823 _2_ AGT  --- 84 tcp 1040 [13a 2 1 800] ------- [1:0 2:1 30 2] [48 0] 1 2
r 150.590463126 _2_ AGT  --- 85 tcp 1040 [13a 2 1 800] ------- [1:0 2:1 30 2] [49 0] 1 2
r 150.592448853 _1_ AGT  --- 115 ack 40 [13a 1 2 800] ------- [2:1 1:0 30 1] [46 0] 1 2
r 150.594275156 _1_ AGT  --- 118 ack 40 [13a 1 2 800] ------- [2:1 1:0 30 1] [47 0] 1 2
r 150.597047459 _1_ AGT  --- 120 ack 40 [13a 1 2 800] ------- [2:1 1:0 30 1] [48 0] 1 2
r 150.607073187 _2_ AGT  --- 88 tcp 1040 [13a 2 1 800] ------- [1:0 2:1 30 2] [50 0] 1 2
r 150.608918914 _1_ AGT  --- 121 ack 40 [13a 1 2 800] ------- [2:1 1:0 30 1] [49 0] 1 2
r 150.610945217 _1_ AGT  --- 125 ack 40 [13a 1 2 800] ------- [2:1 1:0 30 1] [50 0] 1 2
r 150.620930944 _2_ AGT  --- 91 tcp 1040 [13a 2 1 800] ------- [1:0 2:1 30 2] [51 0] 1 2
r 150.623863823 _1_ AGT  --- 128 ack 40 [13a 1 2 800] ------- [2:1 1:0 30 1] [51 0] 1 2
r 150.634489550 _2_ AGT  --- 94 tcp 1040 [13a 2 1 800] ------- [1:0 2:1 30 2] [52 0] 1 2
r 150.636315278 _1_ AGT  --- 130 ack 40 [13a 1 2 800] ------- [2:1 1:0 30 1] [52 0] 1 2
r 150.646581005 _2_ AGT  --- 96 tcp 1040 [13a 2 1 800] ------- [1:0 2:1 30 2] [53 0] 1 2
r 150.656527308 _2_ AGT  --- 100 tcp 1040 [13a 2 1 800] ------- [1:0 2:1 30 2] [54 0] 1 2
r 150.666433611 _2_ AGT  --- 102 tcp 1040 [13a 2 1 800] ------- [1:0 2:1 30 2] [55 0] 1 2
r 150.676539914 _2_ AGT  --- 104 tcp 1040 [13a 2 1 800] ------- [1:0 2:1 30 2] [56 0] 1 2
r 150.678465642 _1_ AGT  --- 132 ack 40 [13a 1 2 800] ------- [2:1 1:0 30 1] [53 0] 1 2
r 150.688431369 _2_ AGT  --- 107 tcp 1040 [13a 2 1 800] ------- [1:0 2:1 30 2] [57 0] 1 2
r 150.698557672 _2_ AGT  --- 108 tcp 1040 [13a 2 1 800] ------- [1:0 2:1 30 2] [58 0] 1 2
r 150.700543399 _1_ AGT  --- 133 ack 40 [13a 1 2 800] ------- [2:1 1:0 30 1] [54 0] 1 2
r 150.710489127 _2_ AGT  --- 110 tcp 1040 [13a 2 1 800] ------- [1:0 2:1 30 2] [59 0] 1 2
r 150.720375430 _2_ AGT  --- 112 tcp 1040 [13a 2 1 800] ------- [1:0 2:1 30 2] [60 0] 1 2
r 150.722601157 _1_ AGT  --- 134 ack 40 [13a 1 2 800] ------- [2:1 1:0 30 1] [55 0] 1 2
r 150.725333460 _1_ AGT  --- 135 ack 40 [13a 1 2 800] ------- [2:1 1:0 30 1] [56 0] 1 2
r 150.735619187 _2_ AGT  --- 113 tcp 1040 [13a 2 1 800] ------- [1:0 2:1 30 2] [61 0] 1 2
r 150.737524915 _1_ AGT  --- 137 ack 40 [13a 1 2 800] ------- [2:1 1:0 30 1] [57 0] 1 2
r 150.747570642 _2_ AGT  --- 114 tcp 1040 [13a 2 1 800] ------- [1:0 2:1 30 2] [62 0] 1 2
r 150.749776369 _1_ AGT  --- 138 ack 40 [13a 1 2 800] ------- [2:1 1:0 30 1] [58 0] 1 2
r 150.759782097 _2_ AGT  --- 116 tcp 1040 [13a 2 1 800] ------- [1:0 2:1 30 2] [63 0] 1 2
r 150.761847824 _1_ AGT  --- 140 ack 40 [13a 1 2 800] ------- [2:1 1:0 30 1] [59 0] 1 2
r 150.765040127 _1_ AGT  --- 141 ack 40 [13a 1 2 800] ------- [2:1 1:0 30 1] [60 0] 1 2
r 150.767266430 _1_ AGT  --- 144 ack 40 [13a 1 2 800] ------- [2:1 1:0 30 1] [61 0] 1 2
r 150.769132733 _1_ AGT  --- 146 ack 40 [13a 1 2 800] ------- [2:1 1:0 30 1] [62 0] 1 2
r 150.779178461 _2_ AGT  --- 117 tcp 1040 [13a 2 1 800] ------- [1:0 2:1 30 2] [64 0] 1 2
r 150.789004764 _2_ AGT  --- 119 tcp 1040 [13a 2 1 800] ------- [1:0 2:1 30 2] [65 0] 1 2
r 150.790870491 _1_ AGT  --- 148 ack 40 [13a 1 2 800] ------- [2:1 1:0 30 1] [63 0] 1 2
r 150.800716218 _2_ AGT  --- 122 tcp 1040 [13a 2 1 800] ------- [1:0 2:1 30 2] [66 0] 1 2
r 150.802941946 _1_ AGT  --- 153 ack 40 [13a 1 2 800] ------- [2:1 1:0 30 1] [64 0] 1 2
r 150.812807673 _2_ AGT  --- 123 tcp 1040 [13a 2 1 800] ------- [1:0 2:1 30 2] [67 0] 1 2
r 150.822973976 _2_ AGT  --- 124 tcp 1040 [13a 2 1 800] ------- [1:0 2:1 30 2] [68 0] 1 2
r 150.824879703 _1_ AGT  --- 154 ack 40 [13a 1 2 800] ------- [2:1 1:0 30 1] [65 0] 1 2
r 150.826726006 _1_ AGT  --- 156 ack 40 [13a 1 2 800] ------- [2:1 1:0 30 1] [66 0] 1 2
r 150.828792310 _1_ AGT  --- 158 ack 40 [13a 1 2 800] ------- [2:1 1:0 30 1] [67 0] 1 2
r 150.838878037 _2_ AGT  --- 126 tcp 1040 [13a 2 1 800] ------- [1:0 2:1 30 2] [69 0] 1 2
r 150.848924340 _2_ AGT  --- 127 tcp 1040 [13a 2 1 800] ------- [1:0 2:1 30 2] [70 0] 1 2
r 150.858750643 _2_ AGT  --- 129 tcp 1040 [13a 2 1 800] ------- [1:0 2:1 30 2] [71 0] 1 2
r 150.860656370 _1_ AGT  --- 159 ack 40 [13a 1 2 800] ------- [2:1 1:0 30 1] [68 0] 1 2
r 150.871489249 _2_ AGT  --- 131 tcp 1040 [13a 2 1 800] ------- [1:0 2:1 30 2] [72 0] 1 2
r 150.881335552 _2_ AGT  --- 136 tcp 1040 [13a 2 1 800] ------- [1:0 2:1 30 2] [73 0] 1 2
r 150.883341280 _1_ AGT  --- 163 ack 40 [13a 1 2 800] ------- [2:1 1:0 30 1] [69 0] 1 2
r 150.893467007 _2_ AGT  --- 139 tcp 1040 [13a 2 1 800] ------- [1:0 2:1 30 2] [74 0] 1 2
r 150.895592734 _1_ AGT  --- 164 ack 40 [13a 1 2 800] ------- [2:1 1:0 30 1] [70 0] 1 2
r 150.906825613 _2_ AGT  --- 142 tcp 1040 [13a 2 1 800] ------- [1:0 2:1 30 2] [75 0] 1 2
r 150.916751916 _2_ AGT  --- 143 tcp 1040 [13a 2 1 800] ------- [1:0 2:1 30 2] [76 0] 1 2
r 150.926778219 _2_ AGT  --- 145 tcp 1040 [13a 2 1 800] ------- [1:0 2:1 30 2] [77 0] 1 2
r 150.936604522 _2_ AGT  --- 147 tcp 1040 [13a 2 1 800] ------- [1:0 2:1 30 2] [78 0] 1 2
r 150.938470250 _1_ AGT  --- 165 ack 40 [13a 1 2 800] ------- [2:1 1:0 30 1] [71 0] 1 2
r 150.940336553 _1_ AGT  --- 167 ack 40 [13a 1 2 800] ------- [2:1 1:0 30 1] [72 0] 1 2
r 150.950242280 _2_ AGT  --- 149 tcp 1040 [13a 2 1 800] ------- [1:0 2:1 30 2] [79 0] 1 2
r 150.960408583 _2_ AGT  --- 150 tcp 1040 [13a 2 1 800] ------- [1:0 2:1 30 2] [80 0] 1 2
r 150.962334310 _1_ AGT  --- 168 ack 40 [13a 1 2 800] ------- [2:1 1:0 30 1] [73 0] 1 2
r 150.972620038 _2_ AGT  --- 151 tcp 1040 [13a 2 1 800] ------- [1:0 2:1 30 2] [81 0] 1 2
r 150.974525765 _1_ AGT  --- 170 ack 40 [13a 1 2 800] ------- [2:1 1:0 30 1] [74 0] 1 2
r 150.976432068 _1_ AGT  --- 172 ack 40 [13a 1 2 800] ------- [2:1 1:0 30 1] [75 0] 1 2
r 150.978438371 _1_ AGT  --- 173 ack 40 [13a 1 2 800] ------- [2:1 1:0 30 1] [76 0] 1 2
r 150.988384099 _2_ AGT  --- 152 tcp 1040 [13a 2 1 800] ------- [1:0 2:1 30 2] [82 0] 1 2
r 150.990289826 _1_ AGT  --- 174 ack 40 [13a 1 2 800] ------- [2:1 1:0 30 1] [77 0] 1 2
r 150.992196129 _1_ AGT  --- 175 ack 40 [13a 1 2 800] ------- [2:1 1:0 30 1] [78 0] 1 2
r 151.002101856 _2_ AGT  --- 155 tcp 1040 [13a 2 1 800] ------- [1:0 2:1 30 2] [83 0] 1 2
r 151.012088159 _2_ AGT  --- 157 tcp 1040 [13a 2 1 800] ------- [1:0 2:1 30 2] [84 0] 1 2
r 151.015161038 _1_ AGT  --- 178 ack 40 [13a 1 2 800] ------- [2:1 1:0 30 1] [79 0] 1 2
r 151.017267341 _1_ AGT  --- 179 ack 40 [13a 1 2 800] ------- [2:1 1:0 30 1] [80 0] 1 2
r 151.019173644 _1_ AGT  --- 181 ack 40 [13a 1 2 800] ------- [2:1 1:0 30 1] [81 0] 1 2
r 151.021399948 _1_ AGT  --- 185 ack 40 [13a 1 2 800] ------- [2:1 1:0 30 1] [82 0] 1 2
r 151.031385675 _2_ AGT  --- 160 tcp 1040 [13a 2 1 800] ------- [1:0 2:1 30 2] [85 0] 1 2
r 151.033291402 _1_ AGT  --- 188 ack 40 [13a 1 2 800] ------- [2:1 1:0 30 1] [83 0] 1 2
r 151.043217129 _2_ AGT  --- 161 tcp 1040 [13a 2 1 800] ------- [1:0 2:1 30 2] [86 0] 1 2
r 151.053043433 _2_ AGT  --- 162 tcp 1040 [13a 2 1 800] ------- [1:0 2:1 30 2] [87 0] 1 2
r 151.055029160 _1_ AGT  --- 189 ack 40 [13a 1 2 800] ------- [2:1 1:0 30 1] [84 0] 1 2
r 151.056955463 _1_ AGT  --- 194 ack 40 [13a 1 2 800] ------- [2:1 1:0 30 1] [85 0] 1 2
r 151.058781766 _1_ AGT  --- 196 ack 40 [13a 1 2 800] ------- [2:1 1:0 30 1] [86 0] 1 2
r 151.068867493 _2_ AGT  --- 166 tcp 1040 [13a 2 1 800] ------- [1:0 2:1 30 2] [88 0] 1 2
r 151.078773796 _2_ AGT  --- 169 tcp 1040 [13a 2 1 800] ------- [1:0 2:1 30 2] [89 0] 1 2
r 151.080699524 _1_ AGT  --- 197 ack 40 [13a 1 2 800] ------- [2:1 1:0 30 1] [87 0] 1 2
r 151.082665827 _1_ AGT  --- 201 ack 40 [13a 1 2 800] ------- [2:1 1:0 30 1] [88 0] 1 2
r 151.085898130 _1_ AGT  --- 202 ack 40 [13a 1 2 800] ------- [2:1 1:0 30 1] [89 0] 1 2
r 151.096003857 _2_ AGT  --- 171 tcp 1040 [13a 2 1 800] ------- [1:0 2:1 30 2] [90 0] 1 2
r 151.106070160 _2_ AGT  --- 176 tcp 1040 [13a 2 1 800] ------- [1:0 2:1 30 2] [91 0] 1 2
r 151.115956463 _2_ AGT  --- 177 tcp 1040 [13a 2 1 800] ------- [1:0 2:1 30 2] [92 0] 1 2
r 151.117822191 _1_ AGT  --- 206 ack 40 [13a 1 2 800] ------- [2:1 1:0 30 1] [90 0] 1 2
r 151.127747918 _2_ AGT  --- 180 tcp 1040 [13a 2 1 800] ------- [1:0 2:1 30 2] [93 0] 1 2
r 151.137634221 _2_ AGT  --- 182 tcp 1040 [13a 2 1 800] ------- [1:0 2:1 30 2] [94 0] 1 2
r 151.147600524 _2_ AGT  --- 183 tcp 1040 [13a 2 1 800] ------- [1:0 2:1 30 2] [95 0] 1 2
r 151.149686252 _1_ AGT  --- 207 ack 40 [13a 1 2 800] ------- [2:1 1:0 30 1] [91 0] 1 2
r 151.151532555 _1_ AGT  --- 208 ack 40 [13a 1 2 800] ------- [2:1 1:0 30 1] [92 0] 1 2
r 151.153398858 _1_ AGT  --- 210 ack 40 [13a 1 2 800] ------- [2:1 1:0 30 1] [93 0] 1 2
r 151.163364585 _2_ AGT  --- 184 tcp 1040 [13a 2 1 800] ------- [1:0 2:1 30 2] [96 0] 1 2
r 151.173230888 _2_ AGT  --- 186 tcp 1040 [13a 2 1 800] ------- [1:0 2:1 30 2] [97 0] 1 2
r 151.175336615 _1_ AGT  --- 211 ack 40 [13a 1 2 800] ------- [2:1 1:0 30 1] [94 0] 1 2
r 151.185402343 _2_ AGT  --- 187 tcp 1040 [13a 2 1 800] ------- [1:0 2:1 30 2] [98 0] 1 2
r 151.195328646 _2_ AGT  --- 190 tcp 1040 [13a 2 1 800] ------- [1:0 2:1 30 2] [99 0] 1 2
r 151.197274373 _1_ AGT  --- 212 ack 40 [13a 1 2 800] ------- [2:1 1:0 30 1] [95 0] 1 2
r 151.207340100 _2_ AGT  --- 191 tcp 1040 [13a 2 1 800] ------- [1:0 2:1 30 2] [100 0] 1 2
r 151.209245828 _1_ AGT  --- 216 ack 40 [13a 1 2 800] ------- [2:1 1:0 30 1] [96 0] 1 2
r 151.211172131 _1_ AGT  --- 217 ack 40 [13a 1 2 800] ------- [2:1 1:0 30 1] [97 0] 1 2
r 151.213238434 _1_ AGT  --- 219 ack 40 [13a 1 2 800] ------- [2:1 1:0 30 1] [98 0] 1 2
r 151.223184161 _2_ AGT  --- 192 tcp 1040 [13a 2 1 800] ------- [1:0 2:1 30 2] [101 0] 1 2
r 151.233190464 _2_ AGT  --- 193 tcp 1040 [13a 2 1 800] ------- [1:0 2:1 30 2] [102 0] 1 2
r 151.243156767 _2_ AGT  --- 195 tcp 1040 [13a 2 1 800] ------- [1:0 2:1 30 2] [103 0] 1 2
r 151.245002495 _1_ AGT  --- 220 ack 40 [13a 1 2 800] ------- [2:1 1:0 30 1] [99 0] 1 2
r 151.254968222 _2_ AGT  --- 198 tcp 1040 [13a 2 1 800] ------- [1:0 2:1 30 2] [104 0] 1 2
r 151.257133949 _1_ AGT  --- 222 ack 40 [13a 1 2 800] ------- [2:1 1:0 30 1] [100 0] 1 2
r 151.267059677 _2_ AGT  --- 199 tcp 1040 [13a 2 1 800] ------- [1:0 2:1 30 2] [105 0] 1 2
r 151.277225980 _2_ AGT  --- 200 tcp 1040 [13a 2 1 800] ------- [1:0 2:1 30 2] [106 0] 1 2
r 151.279131707 _1_ AGT  --- 226 ack 40 [13a 1 2 800] ------- [2:1 1:0 30 1] [101 0] 1 2
r 151.289417434 _2_ AGT  --- 203 tcp 1040 [13a 2 1 800] ------- [1:0 2:1 30 2] [107 0] 1 2
r 151.291343162 _1_ AGT  --- 227 ack 40 [13a 1 2 800] ------- [2:1 1:0 30 1] [102 0] 1 2
r 151.293389465 _1_ AGT  --- 228 ack 40 [13a 1 2 800] ------- [2:1 1:0 30 1] [103 0] 1 2
r 151.303355192 _2_ AGT  --- 204 tcp 1040 [13a 2 1 800] ------- [1:0 2:1 30 2] [108 0] 1 2
r 151.305280919 _1_ AGT  --- 230 ack 40 [13a 1 2 800] ------- [2:1 1:0 30 1] [104 0] 1 2
r 151.315206647 _2_ AGT  --- 205 tcp 1040 [13a 2 1 800] ------- [1:0 2:1 30 2] [109 0] 1 2
r 151.325232950 _2_ AGT  --- 209 tcp 1040 [13a 2 1 800] ------- [1:0 2:1 30 2] [110 0] 1 2
r 151.328025829 _1_ AGT  --- 232 ack 40 [13a 1 2 800] ------- [2:1 1:0 30 1] [105 0] 1 2
r 151.329892132 _1_ AGT  --- 233 ack 40 [13a 1 2 800] ------- [2:1 1:0 30 1] [106 0] 1 2
r 151.332318435 _1_ AGT  --- 235 ack 40 [13a 1 2 800] ------- [2:1 1:0 30 1] [107 0] 1 2
r 151.335650738 _1_ AGT  --- 238 ack 40 [13a 1 2 800] ------- [2:1 1:0 30 1] [108 0] 1 2
r 151.337757041 _1_ AGT  --- 240 ack 40 [13a 1 2 800] ------- [2:1 1:0 30 1] [109 0] 1 2
r 151.339963344 _1_ AGT  --- 241 ack 40 [13a 1 2 800] ------- [2:1 1:0 30 1] [110 0] 1 2
r 151.351329071 _2_ AGT  --- 213 tcp 1040 [13a 2 1 800] ------- [1:0 2:1 30 2] [111 0] 1 2
r 151.361495375 _2_ AGT  --- 214 tcp 1040 [13a 2 1 800] ------- [1:0 2:1 30 2] [112 0] 1 2
r 151.363581102 _1_ AGT  --- 248 ack 40 [13a 1 2 800] ------- [2:1 1:0 30 1] [111 0] 1 2
r 151.373626829 _2_ AGT  --- 215 tcp 1040 [13a 2 1 800] ------- [1:0 2:1 30 2] [113 0] 1 2
r 151.383593132 _2_ AGT  --- 218 tcp 1040 [13a 2 1 800] ------- [1:0 2:1 30 2] [114 0] 1 2
r 151.385498860 _1_ AGT  --- 249 ack 40 [13a 1 2 800] ------- [2:1 1:0 30 1] [112 0] 1 2
r 151.395344587 _2_ AGT  --- 221 tcp 1040 [13a 2 1 800] ------- [1:0 2:1 30 2] [115 0] 1 2
r 151.405190890 _2_ AGT  --- 223 tcp 1040 [13a 2 1 800] ------- [1:0 2:1 30 2] [116 0] 1 2
r 151.415137193 _2_ AGT  --- 224 tcp 1040 [13a 2 1 800] ------- [1:0 2:1 30 2] [117 0] 1 2
r 151.425103496 _2_ AGT  --- 225 tcp 1040 [13a 2 1 800] ------- [1:0 2:1 30 2] [118 0] 1 2
r 151.427149223 _1_ AGT  --- 251 ack 40 [13a 1 2 800] ------- [2:1 1:0 30 1] [113 0] 1 2
r 151.437314951 _2_ AGT  --- 229 tcp 1040 [13a 2 1 800] ------- [1:0 2:1 30 2] [119 0] 1 2
r 151.439240678 _1_ AGT  --- 252 ack 40 [13a 1 2 800] ------- [2:1 1:0 30 1] [114 0] 1 2
r 151.449146405 _2_ AGT  --- 231 tcp 1040 [13a 2 1 800] ------- [1:0 2:1 30 2] [120 0] 1 2
r 151.458972708 _2_ AGT  --- 234 tcp 1040 [13a 2 1 800] ------- [1:0 2:1 30 2] [121 0] 1 2
r 151.461258436 _1_ AGT  --- 254 ack 40 [13a 1 2 800] ------- [2:1 1:0 30 1] [115 0] 1 2
r 151.471184163 _2_ AGT  --- 236 tcp 1040 [13a 2 1 800] ------- [1:0 2:1 30 2] [122 0] 1 2
r 151.473309890 _1_ AGT  --- 255 ack 40 [13a 1 2 800] ------- [2:1 1:0 30 1] [116 0] 1 2
r 151.483195618 _2_ AGT  --- 237 tcp 1040 [13a 2 1 800] ------- [1:0 2:1 30 2] [123 0] 1 2
r 151.493321921 _2_ AGT  --- 239 tcp 1040 [13a 2 1 800] ------- [1:0 2:1 30 2] [124 0] 1 2
r 151.495347648 _1_ AGT  --- 256 ack 40 [13a 1 2 800] ------- [2:1 1:0 30 1] [117 0] 1 2
r 151.497253951 _1_ AGT  --- 257 ack 40 [13a 1 2 800] ------- [2:1 1:0 30 1] [118 0] 1 2
r 151.507399679 _2_ AGT  --- 242 tcp 1040 [13a 2 1 800] ------- [1:0 2:1 30 2] [125 0] 1 2
r 151.509365406 _1_ AGT  --- 259 ack 40 [13a 1 2 800] ------- [2:1 1:0 30 1] [119 0] 1 2
r 151.519311133 _2_ AGT  --- 243 tcp 1040 [13a 2 1 800] ------- [1:0 2:1 30 2] [126 0] 1 2
r 151.529297436 _2_ AGT  --- 244 tcp 1040 [13a 2 1 800] ------- [1:0 2:1 30 2] [127 0] 1 2
r 151.539123739 _2_ AGT  --- 245 tcp 1040 [13a 2 1 800] ------- [1:0 2:1 30 2] [128 0] 1 2
r 151.541189467 _1_ AGT  --- 261 ack 40 [13a 1 2 800] ------- [2:1 1:0 30 1] [120 0] 1 2
r 151.551155194 _2_ AGT  --- 246 tcp 1040 [13a 2 1 800] ------- [1:0 2:1 30 2] [129 0] 1 2
r 151.561161497 _2_ AGT  --- 247 tcp 1040 [13a 2 1 800] ------- [1:0 2:1 30 2] [130 0] 1 2
r 151.563047224 _1_ AGT  --- 262 ack 40 [13a 1 2 800] ------- [2:1 1:0 30 1] [121 0] 1 2
r 151.573352952 _2_ AGT  --- 250 tcp 1040 [13a 2 1 800] ------- [1:0 2:1 30 2] [131 0] 1 2
r 151.575298679 _1_ AGT  --- 264 ack 40 [13a 1 2 800] ------- [2:1 1:0 30 1] [122 0] 1 2
r 151.577264982 _1_ AGT  --- 266 ack 40 [13a 1 2 800] ------- [2:1 1:0 30 1] [123 0] 1 2
r 151.587210709 _2_ AGT  --- 253 tcp 1040 [13a 2 1 800] ------- [1:0 2:1 30 2] [132 0] 1 2
r 151.589236437 _1_ AGT  --- 267 ack 40 [13a 1 2 800] ------- [2:1 1:0 30 1] [124 0] 1 2
r 151.591282740 _1_ AGT  --- 270 ack 40 [13a 1 2 800] ------- [2:1 1:0 30 1] [125 0] 1 2
r 151.601168467 _2_ AGT  --- 258 tcp 1040 [13a 2 1 800] ------- [1:0 2:1 30 2] [133 0] 1 2
r 151.603054194 _1_ AGT  --- 272 ack 40 [13a 1 2 800] ------- [2:1 1:0 30 1] [126 0] 1 2
r 151.604940498 _1_ AGT  --- 273 ack 40 [13a 1 2 800] ------- [2:1 1:0 30 1] [127 0] 1 2
r 151.615166225 _2_ AGT  --- 260 tcp 1040 [13a 2 1 800] ------- [1:0 2:1 30 2] [134 0] 1 2
r 151.624992528 _2_ AGT  --- 263 tcp 1040 [13a 2 1 800] ------- [1:0 2:1 30 2] [135 0] 1 2
r 151.626878255 _1_ AGT  --- 274 ack 40 [13a 1 2 800] ------- [2:1 1:0 30 1] [128 0] 1 2
r 151.636963983 _2_ AGT  --- 265 tcp 1040 [13a 2 1 800] ------- [1:0 2:1 30 2] [136 0] 1 2
r 151.638829710 _1_ AGT  --- 276 ack 40 [13a 1 2 800] ------- [2:1 1:0 30 1] [129 0] 1 2
r 151.648715437 _2_ AGT  --- 268 tcp 1040 [13a 2 1 800] ------- [1:0 2:1 30 2] [137 0] 1 2
r 151.658641740 _2_ AGT  --- 269 tcp 1040 [13a 2 1 800] ------- [1:0 2:1 30 2] [138 0] 1 2
r 151.668628043 _2_ AGT  --- 271 tcp 1040 [13a 2 1 800] ------- [1:0 2:1 30 2] [139 0] 1 2
r 151.670633771 _1_ AGT  --- 277 ack 40 [13a 1 2 800] ------- [2:1 1:0 30 1] [130 0] 1 2
r 151.680539498 _2_ AGT  --- 275 tcp 1040 [13a 2 1 800] ------- [1:0 2:1 30 2] [140 0] 1 2
r 151.682685225 _1_ AGT  --- 279 ack 40 [13a 1 2 800] ------- [2:1 1:0 30 1] [131 0] 1 2
r 151.692530953 _2_ AGT  --- 278 tcp 1040 [13a 2 1 800] ------- [1:0 2:1 30 2] [141 0] 1 2
r 151.702397256 _2_ AGT  --- 280 tcp 1040 [13a 2 1 800] ------- [1:0 2:1 30 2] [142 0] 1 2
r 151.704362983 _1_ AGT  --- 282 ack 40 [13a 1 2 800] ------- [2:1 1:0 30 1] [132 0] 1 2
r 151.714448710 _2_ AGT  --- 281 tcp 1040 [13a 2 1 800] ------- [1:0 2:1 30 2] [143 0] 1 2
r 151.716574438 _1_ AGT  --- 285 ack 40 [13a 1 2 800] ------- [2:1 1:0 30 1] [133 0] 1 2
r 151.718580741 _1_ AGT  --- 288 ack 40 [13a 1 2 800] ------- [2:1 1:0 30 1] [134 0] 1 2
r 151.728506468 _2_ AGT  --- 283 tcp 1040 [13a 2 1 800] ------- [1:0 2:1 30 2] [144 0] 1 2
r 151.738612771 _2_ AGT  --- 284 tcp 1040 [13a 2 1 800] ------- [1:0 2:1 30 2] [145 0] 1 2
r 151.740498498 _1_ AGT  --- 289 ack 40 [13a 1 2 800] ------- [2:1 1:0 30 1] [135 0] 1 2
r 151.750744226 _2_ AGT  --- 286 tcp 1040 [13a 2 1 800] ------- [1:0 2:1 30 2] [146 0] 1 2
r 151.760670529 _2_ AGT  --- 287 tcp 1040 [13a 2 1 800] ------- [1:0 2:1 30 2] [147 0] 1 2
r 151.762556256 _1_ AGT  --- 291 ack 40 [13a 1 2 800] ------- [2:1 1:0 30 1] [136 0] 1 2
r 151.772661983 _2_ AGT  --- 290 tcp 1040 [13a 2 1 800] ------- [1:0 2:1 30 2] [148 0] 1 2
r 151.774527711 _1_ AGT  --- 293 ack 40 [13a 1 2 800] ------- [2:1 1:0 30 1] [137 0] 1 2
r 151.776354014 _1_ AGT  --- 294 ack 40 [13a 1 2 800] ------- [2:1 1:0 30 1] [138 0] 1 2
r 151.778220317 _1_ AGT  --- 295 ack 40 [13a 1 2 800] ------- [2:1 1:0 30 1] [139 0] 1 2
r 151.788186044 _2_ AGT  --- 292 tcp 1040 [13a 2 1 800] ------- [1:0 2:1 30 2] [149 0] 1 2
r 151.798072347 _2_ AGT  --- 296 tcp 1040 [13a 2 1 800] ------- [1:0 2:1 30 2] [150 0] 1 2
r 151.800198075 _1_ AGT  --- 297 ack 40 [13a 1 2 800] ------- [2:1 1:0 30 1] [140 0] 1 2
r 151.810103802 _2_ AGT  --- 298 tcp 1040 [13a 2 1 800] ------- [1:0 2:1 30 2] [151 0] 1 2
r 151.811949529 _1_ AGT  --- 299 ack 40 [13a 1 2 800] ------- [2:1 1:0 30 1] [141 0] 1 2
r 151.814075832 _1_ AGT  --- 300 ack 40 [13a 1 2 800] ------- [2:1 1:0 30 1] [142 0] 1 2
r 151.824161560 _2_ AGT  --- 301 tcp 1040 [13a 2 1 800] ------- [1:0 2:1 30 2] [152 0] 1 2
r 151.833987863 _2_ AGT  --- 303 tcp 1040 [13a 2 1 800] ------- [1:0 2:1 30 2] [153 0] 1 2
r 151.844054166 _2_ AGT  --- 304 tcp 1040 [13a 2 1 800] ------- [1:0 2:1 30 2] [154 0] 1 2
r 151.845939893 _1_ AGT  --- 302 ack 40 [13a 1 2 800] ------- [2:1 1:0 30 1] [143 0] 1 2
r 151.847786196 _1_ AGT  --- 305 ack 40 [13a 1 2 800] ------- [2:1 1:0 30 1] [144 0] 1 2
r 151.857731924 _2_ AGT  --- 307 tcp 1040 [13a 2 1 800] ------- [1:0 2:1 30 2] [155 0] 1 2
r 151.859777651 _1_ AGT  --- 306 ack 40 [13a 1 2 800] ------- [2:1 1:0 30 1] [145 0] 1 2
r 151.869783378 _2_ AGT  --- 310 tcp 1040 [13a 2 1 800] ------- [1:0 2:1 30 2] [156 0] 1 2
r 151.871889106 _1_ AGT  --- 308 ack 40 [13a 1 2 800] ------- [2:1 1:0 30 1] [146 0] 1 2
r 151.881914833 _2_ AGT  --- 312 tcp 1040 [13a 2 1 800] ------- [1:0 2:1 30 2] [157 0] 1 2
r 151.883980560 _1_ AGT  --- 309 ack 40 [13a 1 2 800] ------- [2:1 1:0 30 1] [147 0] 1 2
r 151.885826863 _1_ AGT  --- 311 ack 40 [13a 1 2 800] ------- [2:1 1:0 30 1] [148 0] 1 2
r 151.895752591 _2_ AGT  --- 313 tcp 1040 [13a 2 1 800] ------- [1:0 2:1 30 2] [158 0] 1 2
r 151.897598318 _1_ AGT  --- 315 ack 40 [13a 1 2 800] ------- [2:1 1:0 30 1] [149 0] 1 2
r 151.899704621 _1_ AGT  --- 316 ack 40 [13a 1 2 800] ------- [2:1 1:0 30 1] [150 0] 1 2
r 151.909790348 _2_ AGT  --- 314 tcp 1040 [13a 2 1 800] ------- [1:0 2:1 30 2] [159 0] 1 2
r 151.911776076 _1_ AGT  --- 318 ack 40 [13a 1 2 800] ------- [2:1 1:0 30 1] [151 0] 1 2
r 151.913822379 _1_ AGT  --- 321 ack 40 [13a 1 2 800] ------- [2:1 1:0 30 1] [152 0] 1 2
r 151.915648682 _1_ AGT  --- 322 ack 40 [13a 1 2 800] ------- [2:1 1:0 30 1] [153 0] 1 2
r 151.917474985 _1_ AGT  --- 323 ack 40 [13a 1 2 800] ------- [2:1 1:0 30 1] [154 0] 1 2
r 151.933293562 _2_ AGT  --- 317 tcp 1040 [13a 2 1 800] ------- [1:0 2:1 30 2] [160 0] 1 2
r 151.935279289 _1_ AGT  --- 326 ack 40 [13a 1 2 800] ------- [2:1 1:0 30 1] [155 0] 1 2
r 151.937325592 _1_ AGT  --- 328 ack 40 [13a 1 2 800] ------- [2:1 1:0 30 1] [156 0] 1 2
r 151.947371319 _2_ AGT  --- 319 tcp 1040 [13a 2 1 800] ------- [1:0 2:1 30 2] [161 0] 1 2
r 151.949297047 _1_ AGT  --- 330 ack 40 [13a 1 2 800] ------- [2:1 1:0 30 1] [157 0] 1 2
r 151.951143350 _1_ AGT  --- 333 ack 40 [13a 1 2 800] ------- [2:1 1:0 30 1] [158 0] 1 2
r 151.961069077 _2_ AGT  --- 320 tcp 1040 [13a 2 1 800] ------- [1:0 2:1 30 2] [162 0] 1 2
r 151.964681956 _1_ AGT  --- 336 ack 40 [13a 1 2 800] ------- [2:1 1:0 30 1] [159 0] 1 2
r 151.966868259 _1_ AGT  --- 342 ack 40 [13a 1 2 800] ------- [2:1 1:0 30 1] [160 0] 1 2
r 151.968834562 _1_ AGT  --- 345 ack 40 [13a 1 2 800] ------- [2:1 1:0 30 1] [161 0] 1 2
r 151.978800289 _2_ AGT  --- 324 tcp 1040 [13a 2 1 800] ------- [1:0 2:1 30 2] [163 0] 1 2
r 151.981046017 _1_ AGT  --- 348 ack 40 [13a 1 2 800] ------- [2:1 1:0 30 1] [162 0] 1 2
r 151.983998320 _1_ AGT  --- 352 ack 40 [13a 1 2 800] ------- [2:1 1:0 30 1] [163 0] 1 2
r 151.994524047 _2_ AGT  --- 325 tcp 1040 [13a 2 1 800] ------- [1:0 2:1 30 2] [164 0] 1 2
r 152.004490350 _2_ AGT  --- 327 tcp 1040 [13a 2 1 800] ------- [1:0 2:1 30 2] [165 0] 1 2
r 152.006436077 _1_ AGT  --- 355 ack 40 [13a 1 2 800] ------- [2:1 1:0 30 1] [164 0] 1 2