r 150.071102305 _2_ AGT  --- 6 tcp 40 [13a 2 e 800] ------- [1:0 2:1 28 2] [0 0] 3 2
r 150.075253325 _1_ AGT  --- 7 ack 40 [13a 1 c 800] ------- [2:1 1:0 29 1] [0 0] 2 2
r 150.095164344 _2_ AGT  --- 8 tcp 1040 [13a 2 c 800] ------- [1:0 2:1 29 2] [1 0] 2 2
r 150.099095362 _1_ AGT  --- 10 ack 40 [13a 1 c 800] ------- [2:1 1:0 29 1] [1 0] 2 2
r 150.119746379 _2_ AGT  --- 9 tcp 1040 [13a 2 c 800] ------- [1:0 2:1 29 2] [2 0] 2 2
r 150.133912425 _1_ AGT  --- 13 ack 40 [13a 1 c 800] ------- [2:1 1:0 29 1] [2 0] 2 2
r 150.173753590 _2_ AGT  --- 11 tcp 1040 [13a 2 c 800] ------- [1:0 2:1 29 2] [3 0] 2 2
r 150.185766003 _2_ AGT  --- 12 tcp 1040 [13a 2 c 800] ------- [1:0 2:1 29 2] [4 0] 2 2
r 150.195672945 _2_ AGT  --- 14 tcp 1040 [13a 2 c 800] ------- [1:0 2:1 29 2] [5 0] 2 2
r 150.205539887 _2_ AGT  --- 15 tcp 1040 [13a 2 c 800] ------- [1:0 2:1 29 2] [6 0] 2 2
r 150.209370898 _1_ AGT  --- 16 ack 40 [13a 1 c 800] ------- [2:1 1:0 29 1] [3 0] 2 2
r 150.231305580 _1_ AGT  --- 17 ack 40 [13a 1 c 800] ------- [2:1 1:0 29 1] [4 0] 2 2
r 150.261321660 _2_ AGT  --- 20 tcp 1040 [13a 2 c 800] ------- [1:0 2:1 29 2] [7 0] 2 2
r 150.273074067 _2_ AGT  --- 21 tcp 1040 [13a 2 c 800] ------- [1:0 2:1 29 2] [8 0] 2 2
r 150.285066473 _2_ AGT  --- 22 tcp 1040 [13a 2 c 800] ------- [1:0 2:1 29 2] [9 0] 2 2
r 150.294893410 _2_ AGT  --- 23 tcp 1040 [13a 2 c 800] ------- [1:0 2:1 29 2] [10 0] 2 2
r 150.300951350 _1_ AGT  --- 18 ack 40 [13a 1 c 800] ------- [2:1 1:0 29 1] [5 0] 2 2
r 150.302836420 _1_ AGT  --- 19 ack 40 [13a 1 c 800] ------- [2:1 1:0 29 1] [6 0] 2 2
r 150.304741490 _1_ AGT  --- 24 ack 40 [13a 1 c 800] ------- [2:1 1:0 29 1] [7 0] 2 2
r 150.316711094 _1_ AGT  --- 25 ack 40 [13a 1 c 800] ------- [2:1 1:0 29 1] [8 0] 2 2
r 150.326597563 _2_ AGT  --- 28 tcp 1040 [13a 2 c 800] ------- [1:0 2:1 29 2] [11 0] 2 2
r 150.330688566 _1_ AGT  --- 26 ack 40 [13a 1 c 800] ------- [2:1 1:0 29 1] [9 0] 2 2
r 150.350719567 _2_ AGT  --- 29 tcp 1040 [13a 2 c 800] ------- [1:0 2:1 29 2] [12 0] 2 2
r 150.354570568 _1_ AGT  --- 27 ack 40 [13a 1 c 800] ------- [2:1 1:0 29 1] [10 0] 2 2
r 150.394391703 _2_ AGT  --- 30 tcp 1040 [13a 2 c 800] ------- [1:0 2:1 29 2] [13 0] 2 2
r 150.408331030 _2_ AGT  --- 31 tcp 1040 [13a 2 c 800] ------- [1:0 2:1 29 2] [14 0] 2 2
r 150.418317960 _2_ AGT  --- 32 tcp 1040 [13a 2 c 800] ------- [1:0 2:1 29 2] [15 0] 2 2
r 150.435927786 _1_ AGT  --- 36 ack 40 [13a 1 c 800] ------- [2:1 1:0 29 1] [11 0] 2 2
r 150.458002447 _1_ AGT  --- 39 ack 40 [13a 1 c 800] ------- [2:1 1:0 29 1] [12 0] 2 2
r 150.459907511 _1_ AGT  --- 42 ack 40 [13a 1 c 800] ------- [2:1 1:0 29 1] [13 0] 2 2
r 150.489983568 _2_ AGT  --- 33 tcp 1040 [13a 2 c 800] ------- [1:0 2:1 29 2] [16 0] 2 2
r 150.491909097 _1_ AGT  --- 43 ack 40 [13a 1 c 800] ------- [2:1 1:0 29 1] [14 0] 2 2
r 150.505715569 _1_ AGT  --- 44 ack 40 [13a 1 c 800] ------- [2:1 1:0 29 1] [15 0] 2 2
r 150.515822028 _2_ AGT  --- 34 tcp 1040 [13a 2 c 800] ------- [1:0 2:1 29 2] [17 0] 2 2
r 150.537869429 _2_ AGT  --- 35 tcp 1040 [13a 2 c 800] ------- [1:0 2:1 29 2] [18 0] 2 2
r 150.547796353 _2_ AGT  --- 37 tcp 1040 [13a 2 c 800] ------- [1:0 2:1 29 2] [19 0] 2 2
r 150.561635660 _2_ AGT  --- 38 tcp 1040 [13a 2 c 800] ------- [1:0 2:1 29 2] [20 0] 2 2
r 150.573768043 _2_ AGT  --- 40 tcp 1040 [13a 2 c 800] ------- [1:0 2:1 29 2] [21 0] 2 2
r 150.577599029 _1_ AGT  --- 51 ack 40 [13a 1 c 800] ------- [2:1 1:0 29 1] [16 0] 2 2
r 150.609458736 _1_ AGT  --- 56 ack 40 [13a 1 c 800] ------- [2:1 1:0 29 1] [17 0] 2 2
r 150.629369720 _2_ AGT  --- 41 tcp 1040 [13a 2 c 800] ------- [1:0 2:1 29 2] [22 0] 2 2
r 150.633200702 _1_ AGT  --- 57 ack 40 [13a 1 c 800] ------- [2:1 1:0 29 1] [18 0] 2 2
r 150.644970288 _1_ AGT  --- 58 ack 40 [13a 1 c 800] ------- [2:1 1:0 29 1] [19 0] 2 2
r 150.666984931 _1_ AGT  --- 59 ack 40 [13a 1 c 800] ------- [2:1 1:0 29 1] [20 0] 2 2
r 150.688919571 _1_ AGT  --- 60 ack 40 [13a 1 c 800] ------- [2:1 1:0 29 1] [21 0] 2 2
r 150.698946022 _2_ AGT  --- 45 tcp 1040 [13a 2 c 800] ------- [1:0 2:1 29 2] [23 0] 2 2
r 150.720793402 _2_ AGT  --- 46 tcp 1040 [13a 2 c 800] ------- [1:0 2:1 29 2] [24 0] 2 2
r 150.730700316 _2_ AGT  --- 47 tcp 1040 [13a 2 c 800] ------- [1:0 2:1 29 2] [25 0] 2 2
r 150.742652686 _2_ AGT  --- 48 tcp 1040 [13a 2 c 800] ------- [1:0 2:1 29 2] [26 0] 2 2
r 150.746603660 _1_ AGT  --- 65 ack 40 [13a 1 c 800] ------- [2:1 1:0 29 1] [22 0] 2 2
r 150.766594635 _2_ AGT  --- 49 tcp 1040 [13a 2 c 800] ------- [1:0 2:1 29 2] [27 0] 2 2
r 150.776481546 _2_ AGT  --- 50 tcp 1040 [13a 2 c 800] ------- [1:0 2:1 29 2] [28 0] 2 2
r 150.788393912 _2_ AGT  --- 52 tcp 1040 [13a 2 c 800] ------- [1:0 2:1 29 2] [29 0] 2 2
r 150.830111384 _2_ AGT  --- 53 tcp 1040 [13a 2 c 800] ------- [1:0 2:1 29 2] [30 0] 2 2
r 150.840218292 _2_ AGT  --- 54 tcp 1040 [13a 2 c 800] ------- [1:0 2:1 29 2] [31 0] 2 2
r 150.844049260 _1_ AGT  --- 71 ack 40 [13a 1 c 800] ------- [2:1 1:0 29 1] [23 0] 2 2
r 150.866157087 _2_ AGT  --- 55 tcp 1040 [13a 2 c 800] ------- [1:0 2:1 29 2] [32 0] 2 2
r 150.881999913 _1_ AGT  --- 72 ack 40 [13a 1 c 800] ------- [2:1 1:0 29 1] [24 0] 2 2
r 150.883884962 _1_ AGT  --- 73 ack 40 [13a 1 c 800] ------- [2:1 1:0 29 1] [25 0] 2 2
r 150.893991403 _2_ AGT  --- 61 tcp 1040 [13a 2 c 800] ------- [1:0 2:1 29 2] [33 0] 2 2
r 150.895896916 _1_ AGT  --- 74 ack 40 [13a 1 c 800] ------- [2:1 1:0 29 1] [26 0] 2 2
r 150.907766488 _1_ AGT  --- 76 ack 40 [13a 1 c 800] ------- [2:1 1:0 29 1] [27 0] 2 2
r 150.929734307 _2_ AGT  --- 62 tcp 1040 [13a 2 c 800] ------- [1:0 2:1 29 2] [34 0] 2 2
r 150.951481660 _2_ AGT  --- 63 tcp 1040 [13a 2 c 800] ------- [1:0 2:1 29 2] [35 0] 2 2
r 150.963554013 _2_ AGT  --- 64 tcp 1040 [13a 2 c 800] ------- [1:0 2:1 29 2] [36 0] 2 2
r 150.979466871 _1_ AGT  --- 77 ack 40 [13a 1 c 800] ------- [2:1 1:0 29 1] [28 0] 2 2
r 151.009562874 _2_ AGT  --- 66 tcp 1040 [13a 2 c 800] ------- [1:0 2:1 29 2] [37 0] 2 2
r 151.013453831 _1_ AGT  --- 78 ack 40 [13a 1 c 800] ------- [2:1 1:0 29 1] [29 0] 2 2
r 151.025423397 _1_ AGT  --- 79 ack 40 [13a 1 c 800] ------- [2:1 1:0 29 1] [30 0] 2 2
r 151.035349831 _2_ AGT  --- 67 tcp 1040 [13a 2 c 800] ------- [1:0 2:1 29 2] [38 0] 2 2
r 151.037195338 _1_ AGT  --- 80 ack 40 [13a 1 c 800] ------- [2:1 1:0 29 1] [31 0] 2 2
r 151.057066293 _2_ AGT  --- 68 tcp 1040 [13a 2 c 800] ------- [1:0 2:1 29 2] [39 0] 2 2
r 151.069158637 _2_ AGT  --- 69 tcp 1040 [13a 2 c 800] ------- [1:0 2:1 29 2] [40 0] 2 2
r 151.074956486 _1_ AGT  --- 82 ack 40 [13a 1 c 800] ------- [2:1 1:0 29 1] [32 0] 2 2
r 151.086946048 _1_ AGT  --- 85 ack 40 [13a 1 c 800] ------- [2:1 1:0 29 1] [33 0] 2 2
r 151.096972479 _2_ AGT  --- 70 tcp 1040 [13a 2 c 800] ------- [1:0 2:1 29 2] [41 0] 2 2
r 151.098877983 _1_ AGT  --- 88 ack 40 [13a 1 c 800] ------- [2:1 1:0 29 1] [34 0] 2 2
r 151.110647544 _1_ AGT  --- 89 ack 40 [13a 1 c 800] ------- [2:1 1:0 29 1] [35 0] 2 2
r 151.112492585 _1_ AGT  --- 90 ack 40 [13a 1 c 800] ------- [2:1 1:0 29 1] [36 0] 2 2
r 151.132483535 _2_ AGT  --- 75 tcp 1040 [13a 2 c 800] ------- [1:0 2:1 29 2] [42 0] 2 2
r 151.154510864 _2_ AGT  --- 81 tcp 1040 [13a 2 c 800] ------- [1:0 2:1 29 2] [43 0] 2 2
r 151.166503201 _2_ AGT  --- 83 tcp 1040 [13a 2 c 800] ------- [1:0 2:1 29 2] [44 0] 2 2
r 151.191981065 _1_ AGT  --- 92 ack 40 [13a 1 c 800] ------- [2:1 1:0 29 1] [37 0] 2 2
r 151.202207492 _2_ AGT  --- 84 tcp 1040 [13a 2 c 800] ------- [1:0 2:1 29 2] [45 0] 2 2
r 151.224280209 _2_ AGT  --- 86 tcp 1040 [13a 2 c 800] ------- [1:0 2:1 29 2] [46 0] 2 2
r 151.228531152 _1_ AGT  --- 95 ack 40 [13a 1 c 800] ------- [2:1 1:0 29 1] [38 0] 2 2
r 151.240260706 _1_ AGT  --- 97 ack 40 [13a 1 c 800] ------- [2:1 1:0 29 1] [39 0] 2 2
r 151.262215294 _1_ AGT  --- 98 ack 40 [13a 1 c 800] ------- [2:1 1:0 29 1] [40 0] 2 2
r 151.282466234 _2_ AGT  --- 87 tcp 1040 [13a 2 c 800] ------- [1:0 2:1 29 2] [47 0] 2 2
r 151.294458560 _2_ AGT  --- 91 tcp 1040 [13a 2 c 800] ------- [1:0 2:1 29 2] [48 0] 2 2
r 151.306470886 _2_ AGT  --- 93 tcp 1040 [13a 2 c 800] ------- [1:0 2:1 29 2] [49 0] 2 2
r 151.310361823 _1_ AGT  --- 101 ack 40 [13a 1 c 800] ------- [2:1 1:0 29 1] [41 0] 2 2
r 151.330172760 _2_ AGT  --- 94 tcp 1040 [13a 2 c 800] ------- [1:0 2:1 29 2] [50 0] 2 2
r 151.334403696 _1_ AGT  --- 105 ack 40 [13a 1 c 800] ------- [2:1 1:0 29 1] [42 0] 2 2
r 151.346493244 _1_ AGT  --- 106 ack 40 [13a 1 c 800] ------- [2:1 1:0 29 1] [43 0] 2 2
r 151.348658276 _1_ AGT  --- 107 ack 40 [13a 1 c 800] ------- [2:1 1:0 29 1] [44 0] 2 2
r 151.378654241 _2_ AGT  --- 96 tcp 1040 [13a 2 c 800] ------- [1:0 2:1 29 2] [51 0] 2 2
r 151.388801120 _2_ AGT  --- 99 tcp 1040 [13a 2 c 800] ------- [1:0 2:1 29 2] [52 0] 2 2
r 151.398767999 _2_ AGT  --- 100 tcp 1040 [13a 2 c 800] ------- [1:0 2:1 29 2] [53 0] 2 2
r 151.432503970 _1_ AGT  --- 109 ack 40 [13a 1 c 800] ------- [2:1 1:0 29 1] [45 0] 2 2
r 151.436719827 _1_ AGT  --- 110 ack 40 [13a 1 c 800] ------- [2:1 1:0 29 1] [46 0] 2 2
r 151.456450755 _2_ AGT  --- 102 tcp 1040 [13a 2 c 800] ------- [1:0 2:1 29 2] [54 0] 2 2
r 151.470229943 _2_ AGT  --- 103 tcp 1040 [13a 2 c 800] ------- [1:0 2:1 29 2] [55 0] 2 2
r 151.480136818 _2_ AGT  --- 104 tcp 1040 [13a 2 c 800] ------- [1:0 2:1 29 2] [56 0] 2 2
r 151.494176003 _2_ AGT  --- 108 tcp 1040 [13a 2 c 800] ------- [1:0 2:1 29 2] [57 0] 2 2
r 151.496001491 _1_ AGT  --- 114 ack 40 [13a 1 c 800] ------- [2:1 1:0 29 1] [47 0] 2 2
r 151.507871030 _1_ AGT  --- 115 ack 40 [13a 1 c 800] ------- [2:1 1:0 29 1] [48 0] 2 2
r 151.521837393 _1_ AGT  --- 116 ack 40 [13a 1 c 800] ------- [2:1 1:0 29 1] [49 0] 2 2
r 151.551913340 _2_ AGT  --- 111 tcp 1040 [13a 2 c 800] ------- [1:0 2:1 29 2] [58 0] 2 2
r 151.555964261 _1_ AGT  --- 118 ack 40 [13a 1 c 800] ------- [2:1 1:0 29 1] [50 0] 2 2
r 151.565990670 _2_ AGT  --- 112 tcp 1040 [13a 2 c 800] ------- [1:0 2:1 29 2] [59 0] 2 2
r 151.587917949 _2_ AGT  --- 113 tcp 1040 [13a 2 c 800] ------- [1:0 2:1 29 2] [60 0] 2 2
r 151.599870252 _2_ AGT  --- 117 tcp 1040 [13a 2 c 800] ------- [1:0 2:1 29 2] [61 0] 2 2
r 151.603741170 _1_ AGT  --- 122 ack 40 [13a 1 c 800] ------- [2:1 1:0 29 1] [51 0] 2 2
r 151.623632087 _2_ AGT  --- 119 tcp 1040 [13a 2 c 800] ------- [1:0 2:1 29 2] [62 0] 2 2
r 151.635764387 _2_ AGT  --- 120 tcp 1040 [13a 2 c 800] ------- [1:0 2:1 29 2] [63 0] 2 2
r 151.647896686 _2_ AGT  --- 121 tcp 1040 [13a 2 c 800] ------- [1:0 2:1 29 2] [64 0] 2 2
r 151.651987600 _1_ AGT  --- 123 ack 40 [13a 1 c 800] ------- [2:1 1:0 29 1] [52 0] 2 2
r 151.661874004 _2_ AGT  --- 125 tcp 1040 [13a 2 c 800] ------- [1:0 2:1 29 2] [65 0] 2 2
r 151.675979890 _1_ AGT  --- 124 ack 40 [13a 1 c 800] ------- [2:1 1:0 29 1] [53 0] 2 2
r 151.688009419 _1_ AGT  --- 127 ack 40 [13a 1 c 800] ------- [2:1 1:0 29 1] [54 0] 2 2
r 151.699798948 _1_ AGT  --- 128 ack 40 [13a 1 c 800] ------- [2:1 1:0 29 1] [55 0] 2 2
r 151.701903967 _1_ AGT  --- 129 ack 40 [13a 1 c 800] ------- [2:1 1:0 29 1] [56 0] 2 2
r 151.711750368 _2_ AGT  --- 126 tcp 1040 [13a 2 c 800] ------- [1:0 2:1 29 2] [66 0] 2 2
r 151.743602649 _2_ AGT  --- 131 tcp 1040 [13a 2 c 800] ------- [1:0 2:1 29 2] [67 0] 2 2
r 151.745568127 _1_ AGT  --- 130 ack 40 [13a 1 c 800] ------- [2:1 1:0 29 1] [57 0] 2 2
r 151.755534526 _2_ AGT  --- 132 tcp 1040 [13a 2 c 800] ------- [1:0 2:1 29 2] [68 0] 2 2
r 151.777541784 _2_ AGT  --- 133 tcp 1040 [13a 2 c 800] ------- [1:0 2:1 29 2] [69 0] 2 2
r 151.781372690 _1_ AGT  --- 134 ack 40 [13a 1 c 800] ------- [2:1 1:0 29 1] [58 0] 2 2
r 151.795159023 _1_ AGT  --- 136 ack 40 [13a 1 c 800] ------- [2:1 1:0 29 1] [59 0] 2 2
r 151.805085421 _2_ AGT  --- 135 tcp 1040 [13a 2 c 800] ------- [1:0 2:1 29 2] [70 0] 2 2
r 151.806930896 _1_ AGT  --- 137 ack 40 [13a 1 c 800] ------- [2:1 1:0 29 1] [60 0] 2 2
r 151.808855911 _1_ AGT  --- 138 ack 40 [13a 1 c 800] ------- [2:1 1:0 29 1] [61 0] 2 2
r 151.838731829 _2_ AGT  --- 139 tcp 1040 [13a 2 c 800] ------- [1:0 2:1 29 2] [71 0] 2 2
r 151.840617303 _1_ AGT  --- 140 ack 40 [13a 1 c 800] ------- [2:1 1:0 29 1] [62 0] 2 2
r 151.842462317 _1_ AGT  --- 141 ack 40 [13a 1 c 800] ------- [2:1 1:0 29 1] [63 0] 2 2
r 151.856408644 _1_ AGT  --- 142 ack 40 [13a 1 c 800] ------- [2:1 1:0 29 1] [64 0] 2 2
r 151.858313657 _1_ AGT  --- 144 ack 40 [13a 1 c 800] ------- [2:1 1:0 29 1] [65 0] 2 2
r 151.878124558 _2_ AGT  --- 143 tcp 1040 [13a 2 c 800] ------- [1:0 2:1 29 2] [72 0] 2 2
r 151.892043691 _2_ AGT  --- 145 tcp 1040 [13a 2 c 800] ------- [1:0 2:1 29 2] [73 0] 2 2
r 151.904075969 _2_ AGT  --- 146 tcp 1040 [13a 2 c 800] ------- [1:0 2:1 29 2] [74 0] 2 2
r 151.906261441 _1_ AGT  --- 149 ack 40 [13a 1 c 800] ------- [2:1 1:0 29 1] [66 0] 2 2
r 151.928109141 _2_ AGT  --- 147 tcp 1040 [13a 2 c 800] ------- [1:0 2:1 29 2] [75 0] 2 2
r 151.940221417 _2_ AGT  --- 148 tcp 1040 [13a 2 c 800] ------- [1:0 2:1 29 2] [76 0] 2 2
r 151.954107274 _1_ AGT  --- 150 ack 40 [13a 1 c 800] ------- [2:1 1:0 29 1] [67 0] 2 2
r 151.963953663 _2_ AGT  --- 151 tcp 1040 [13a 2 c 800] ------- [1:0 2:1 29 2] [77 0] 2 2
r 151.966119132 _1_ AGT  --- 152 ack 40 [13a 1 c 800] ------- [2:1 1:0 29 1] [68 0] 2 2
r 151.988066825 _2_ AGT  --- 154 tcp 1040 [13a 2 c 800] ------- [1:0 2:1 29 2] [78 0] 2 2
r 151.990052294 _1_ AGT  --- 153 ack 40 [13a 1 c 800] ------- [2:1 1:0 29 1] [69 0] 2 2
r 152.021994943 _2_ AGT  --- 155 tcp 1040 [13a 2 c 800] ------- [1:0 2:1 29 2] [79 0] 2 2
r 152.033987211 _2_ AGT  --- 157 tcp 1040 [13a 2 c 800] ------- [1:0 2:1 29 2] [80 0] 2 2
r 152.054243014 _2_ AGT  --- 158 tcp 1040 [13a 2 c 800] ------- [1:0 2:1 29 2] [81 0] 2 2
r 152.060140746 _1_ AGT  --- 156 ack 40 [13a 1 c 800] ------- [2:1 1:0 29 1] [70 0] 2 2
r 152.089976638 _2_ AGT  --- 160 tcp 1040 [13a 2 c 800] ------- [1:0 2:1 29 2] [82 0] 2 2
r 152.094127523 _1_ AGT  --- 159 ack 40 [13a 1 c 800] ------- [2:1 1:0 29 1] [71 0] 2 2
r 152.106237030 _1_ AGT  --- 164 ack 40 [13a 1 c 800] ------- [2:1 1:0 29 1] [72 0] 2 2
r 152.117966536 _1_ AGT  --- 165 ack 40 [13a 1 c 800] ------- [2:1 1:0 29 1] [73 0] 2 2
r 152.137937419 _2_ AGT  --- 161 tcp 1040 [13a 2 c 800] ------- [1:0 2:1 29 2] [83 0] 2 2
r 152.142188301 _1_ AGT  --- 166 ack 40 [13a 1 c 800] ------- [2:1 1:0 29 1] [74 0] 2 2
r 152.144013304 _1_ AGT  --- 168 ack 40 [13a 1 c 800] ------- [2:1 1:0 29 1] [75 0] 2 2
r 152.156082808 _1_ AGT  --- 169 ack 40 [13a 1 c 800] ------- [2:1 1:0 29 1] [76 0] 2 2
r 152.185858690 _2_ AGT  --- 162 tcp 1040 [13a 2 c 800] ------- [1:0 2:1 29 2] [84 0] 2 2
r 152.195865528 _2_ AGT  --- 163 tcp 1040 [13a 2 c 800] ------- [1:0 2:1 29 2] [85 0] 2 2
r 152.201743242 _1_ AGT  --- 171 ack 40 [13a 1 c 800] ------- [2:1 1:0 29 1] [77 0] 2 2
r 152.211629620 _2_ AGT  --- 167 tcp 1040 [13a 2 c 800] ------- [1:0 2:1 29 2] [86 0] 2 2
r 152.213495079 _1_ AGT  --- 173 ack 40 [13a 1 c 800] ------- [2:1 1:0 29 1] [78 0] 2 2
r 152.223561456 _2_ AGT  --- 170 tcp 1040 [13a 2 c 800] ------- [1:0 2:1 29 2] [87 0] 2 2
r 152.237387284 _1_ AGT  --- 175 ack 40 [13a 1 c 800] ------- [2:1 1:0 29 1] [79 0] 2 2
r 152.247513659 _2_ AGT  --- 172 tcp 1040 [13a 2 c 800] ------- [1:0 2:1 29 2] [88 0] 2 2
r 152.253591368 _1_ AGT  --- 176 ack 40 [13a 1 c 800] ------- [2:1 1:0 29 1] [80 0] 2 2
r 152.255476367 _1_ AGT  --- 177 ack 40 [13a 1 c 800] ------- [2:1 1:0 29 1] [81 0] 2 2
r 152.275247241 _2_ AGT  --- 174 tcp 1040 [13a 2 c 800] ------- [1:0 2:1 29 2] [89 0] 2 2
r 152.287399490 _2_ AGT  --- 178 tcp 1040 [13a 2 c 800] ------- [1:0 2:1 29 2] [90 0] 2 2
r 152.301505311 _1_ AGT  --- 179 ack 40 [13a 1 c 800] ------- [2:1 1:0 29 1] [82 0] 2 2
r 152.341346174 _2_ AGT  --- 180 tcp 1040 [13a 2 c 800] ------- [1:0 2:1 29 2] [91 0] 2 2
r 152.351533003 _2_ AGT  --- 181 tcp 1040 [13a 2 c 800] ------- [1:0 2:1 29 2] [92 0] 2 2
r 152.365312075 _2_ AGT  --- 182 tcp 1040 [13a 2 c 800] ------- [1:0 2:1 29 2] [93 0] 2 2
r 152.369462942 _1_ AGT  --- 183 ack 40 [13a 1 c 800] ------- [2:1 1:0 29 1] [83 0] 2 2
r 152.379389311 _2_ AGT  --- 184 tcp 1040 [13a 2 c 800] ------- [1:0 2:1 29 2] [94 0] 2 2
r 152.389456138 _2_ AGT  --- 185 tcp 1040 [13a 2 c 800] ------- [1:0 2:1 29 2] [95 0] 2 2
r 152.399282965 _2_ AGT  --- 186 tcp 1040 [13a 2 c 800] ------- [1:0 2:1 29 2] [96 0] 2 2
r 152.401108417 _1_ AGT  --- 187 ack 40 [13a 1 c 800] ------- [2:1 1:0 29 1] [84 0] 2 2
r 152.422862900 _1_ AGT  --- 188 ack 40 [13a 1 c 800] ------- [2:1 1:0 29 1] [85 0] 2 2
r 152.424727892 _1_ AGT  --- 190 ack 40 [13a 1 c 800] ------- [2:1 1:0 29 1] [86 0] 2 2
r 152.434634259 _2_ AGT  --- 189 tcp 1040 [13a 2 c 800] ------- [1:0 2:1 29 2] [97 0] 2 2
r 152.438545122 _1_ AGT  --- 192 ack 40 [13a 1 c 800] ------- [2:1 1:0 29 1] [87 0] 2 2
r 152.450634610 _1_ AGT  --- 194 ack 40 [13a 1 c 800] ------- [2:1 1:0 29 1] [88 0] 2 2
r 152.470365471 _2_ AGT  --- 191 tcp 1040 [13a 2 c 800] ------- [1:0 2:1 29 2] [98 0] 2 2
r 152.474556331 _1_ AGT  --- 197 ack 40 [13a 1 c 800] ------- [2:1 1:0 29 1] [89 0] 2 2
r 152.486565817 _1_ AGT  --- 198 ack 40 [13a 1 c 800] ------- [2:1 1:0 29 1] [90 0] 2 2
r 152.518288388 _2_ AGT  --- 193 tcp 1040 [13a 2 c 800] ------- [1:0 2:1 29 2] [99 0] 2 2
r 152.532387438 _2_ AGT  --- 195 tcp 1040 [13a 2 c 800] ------- [1:0 2:1 29 2] [100 0] 2 2
r 152.542254257 _2_ AGT  --- 196 tcp 1040 [13a 2 c 800] ------- [1:0 2:1 29 2] [101 0] 2 2
r 152.564241424 _2_ AGT  --- 199 tcp 1040 [13a 2 c 800] ------- [1:0 2:1 29 2] [102 0] 2 2
r 152.570279096 _1_ AGT  --- 200 ack 40 [13a 1 c 800] ------- [2:1 1:0 29 1] [91 0] 2 2
r 152.582488577 _1_ AGT  --- 201 ack 40 [13a 1 c 800] ------- [2:1 1:0 29 1] [92 0] 2 2
r 152.596574824 _1_ AGT  --- 202 ack 40 [13a 1 c 800] ------- [2:1 1:0 29 1] [93 0] 2 2
r 152.616365675 _2_ AGT  --- 203 tcp 1040 [13a 2 c 800] ------- [1:0 2:1 29 2] [103 0] 2 2
r 152.628537898 _2_ AGT  --- 207 tcp 1040 [13a 2 c 800] ------- [1:0 2:1 29 2] [104 0] 2 2
r 152.630363340 _1_ AGT  --- 204 ack 40 [13a 1 c 800] ------- [2:1 1:0 29 1] [94 0] 2 2
r 152.652430954 _2_ AGT  --- 208 tcp 1040 [13a 2 c 800] ------- [1:0 2:1 29 2] [105 0] 2 2
r 152.664143174 _2_ AGT  --- 209 tcp 1040 [13a 2 c 800] ------- [1:0 2:1 29 2] [106 0] 2 2
r 152.668074021 _1_ AGT  --- 205 ack 40 [13a 1 c 800] ------- [2:1 1:0 29 1] [95 0] 2 2
r 152.688144868 _2_ AGT  --- 211 tcp 1040 [13a 2 c 800] ------- [1:0 2:1 29 2] [107 0] 2 2
r 152.699957084 _2_ AGT  --- 212 tcp 1040 [13a 2 c 800] ------- [1:0 2:1 29 2] [108 0] 2 2
r 152.702002524 _1_ AGT  --- 206 ack 40 [13a 1 c 800] ------- [2:1 1:0 29 1] [96 0] 2 2
r 152.722133368 _2_ AGT  --- 214 tcp 1040 [13a 2 c 800] ------- [1:0 2:1 29 2] [109 0] 2 2
r 152.728231021 _1_ AGT  --- 210 ack 40 [13a 1 c 800] ------- [2:1 1:0 29 1] [97 0] 2 2
r 152.739960493 _1_ AGT  --- 213 ack 40 [13a 1 c 800] ------- [2:1 1:0 29 1] [98 0] 2 2
r 152.741825474 _1_ AGT  --- 216 ack 40 [13a 1 c 800] ------- [2:1 1:0 29 1] [99 0] 2 2
r 152.761996316 _2_ AGT  --- 215 tcp 1040 [13a 2 c 800] ------- [1:0 2:1 29 2] [110 0] 2 2
r 152.763941753 _1_ AGT  --- 217 ack 40 [13a 1 c 800] ------- [2:1 1:0 29 1] [100 0] 2 2
r 152.775931224 _1_ AGT  --- 218 ack 40 [13a 1 c 800] ------- [2:1 1:0 29 1] [101 0] 2 2
r 152.785897574 _2_ AGT  --- 220 tcp 1040 [13a 2 c 800] ------- [1:0 2:1 29 2] [111 0] 2 2
r 152.799716589 _2_ AGT  --- 221 tcp 1040 [13a 2 c 800] ------- [1:0 2:1 29 2] [112 0] 2 2
r 152.823447335 _1_ AGT  --- 219 ack 40 [13a 1 c 800] ------- [2:1 1:0 29 1] [102 0] 2 2
r 152.843258171 _2_ AGT  --- 222 tcp 1040 [13a 2 c 800] ------- [1:0 2:1 29 2] [113 0] 2 2
r 152.845363605 _1_ AGT  --- 223 ack 40 [13a 1 c 800] ------- [2:1 1:0 29 1] [103 0] 2 2
r 152.867331194 _2_ AGT  --- 225 tcp 1040 [13a 2 c 800] ------- [1:0 2:1 29 2] [114 0] 2 2
r 152.869536626 _1_ AGT  --- 224 ack 40 [13a 1 c 800] ------- [2:1 1:0 29 1] [104 0] 2 2
r 152.871561603 _1_ AGT  --- 226 ack 40 [13a 1 c 800] ------- [2:1 1:0 29 1] [105 0] 2 2
r 152.885407819 _1_ AGT  --- 227 ack 40 [13a 1 c 800] ------- [2:1 1:0 29 1] [106 0] 2 2
r 152.905578652 _2_ AGT  --- 228 tcp 1040 [13a 2 c 800] ------- [1:0 2:1 29 2] [115 0] 2 2
r 152.909609483 _1_ AGT  --- 229 ack 40 [13a 1 c 800] ------- [2:1 1:0 29 1] [107 0] 2 2
r 152.939625288 _2_ AGT  --- 231 tcp 1040 [13a 2 c 800] ------- [1:0 2:1 29 2] [116 0] 2 2
r 152.943736117 _1_ AGT  --- 230 ack 40 [13a 1 c 800] ------- [2:1 1:0 29 1] [108 0] 2 2
r 152.945741091 _1_ AGT  --- 232 ack 40 [13a 1 c 800] ------- [2:1 1:0 29 1] [109 0] 2 2
r 152.975796892 _2_ AGT  --- 233 tcp 1040 [13a 2 c 800] ------- [1:0 2:1 29 2] [117 0] 2 2
r 152.987989087 _2_ AGT  --- 234 tcp 1040 [13a 2 c 800] ------- [1:0 2:1 29 2] [118 0] 2 2
r 152.999861280 _2_ AGT  --- 235 tcp 1040 [13a 2 c 800] ------- [1:0 2:1 29 2] [119 0] 2 2
r 153.001686708 _1_ AGT  --- 236 ack 40 [13a 1 c 800] ------- [2:1 1:0 29 1] [110 0] 2 2
r 153.003631679 _1_ AGT  --- 239 ack 40 [13a 1 c 800] ------- [2:1 1:0 29 1] [111 0] 2 2
r 153.025406107 _1_ AGT  --- 240 ack 40 [13a 1 c 800] ------- [2:1 1:0 29 1] [112 0] 2 2
r 153.035292446 _2_ AGT  --- 237 tcp 1040 [13a 2 c 800] ------- [1:0 2:1 29 2] [120 0] 2 2
r 153.049111428 _2_ AGT  --- 238 tcp 1040 [13a 2 c 800] ------- [1:0 2:1 29 2] [121 0] 2 2
r 153.059118221 _2_ AGT  --- 241 tcp 1040 [13a 2 c 800] ------- [1:0 2:1 29 2] [122 0] 2 2
r 153.071110409 _2_ AGT  --- 243 tcp 1040 [13a 2 c 800] ------- [1:0 2:1 29 2] [123 0] 2 2
r 153.087052890 _1_ AGT  --- 242 ack 40 [13a 1 c 800] ------- [2:1 1:0 29 1] [113 0] 2 2
r 153.096879225 _2_ AGT  --- 245 tcp 1040 [13a 2 c 800] ------- [1:0 2:1 29 2] [124 0] 2 2
r 153.098824649 _1_ AGT  --- 244 ack 40 [13a 1 c 800] ------- [2:1 1:0 29 1] [114 0] 2 2
r 153.108930984 _2_ AGT  --- 246 tcp 1040 [13a 2 c 800] ------- [1:0 2:1 29 2] [125 0] 2 2
r 153.114728591 _1_ AGT  --- 248 ack 40 [13a 1 c 800] ------- [2:1 1:0 29 1] [115 0] 2 2
r 153.134639408 _2_ AGT  --- 247 tcp 1040 [13a 2 c 800] ------- [1:0 2:1 29 2] [126 0] 2 2
r 153.144546196 _2_ AGT  --- 249 tcp 1040 [13a 2 c 800] ------- [1:0 2:1 29 2] [127 0] 2 2
r 153.146431618 _1_ AGT  --- 250 ack 40 [13a 1 c 800] ------- [2:1 1:0 29 1] [116 0] 2 2
r 153.176307399 _2_ AGT  --- 251 tcp 1040 [13a 2 c 800] ------- [1:0 2:1 29 2] [128 0] 2 2
r 153.192093149 _2_ AGT  --- 252 tcp 1040 [13a 2 c 800] ------- [1:0 2:1 29 2] [129 0] 2 2
r 153.206158877 _1_ AGT  --- 253 ack 40 [13a 1 c 800] ------- [2:1 1:0 29 1] [117 0] 2 2
r 153.218348323 _1_ AGT  --- 254 ack 40 [13a 1 c 800] ------- [2:1 1:0 29 1] [118 0] 2 2
r 153.228234652 _2_ AGT  --- 256 tcp 1040 [13a 2 c 800] ------- [1:0 2:1 29 2] [130 0] 2 2
r 153.240106826 _2_ AGT  --- 257 tcp 1040 [13a 2 c 800] ------- [1:0 2:1 29 2] [131 0] 2 2
r 153.244037636 _1_ AGT  --- 255 ack 40 [13a 1 c 800] ------- [2:1 1:0 29 1] [119 0] 2 2
r 153.246042599 _1_ AGT  --- 259 ack 40 [13a 1 c 800] ------- [2:1 1:0 29 1] [120 0] 2 2
r 153.247907561 _1_ AGT  --- 260 ack 40 [13a 1 c 800] ------- [2:1 1:0 29 1] [121 0] 2 2
r 153.279826929 _1_ AGT  --- 261 ack 40 [13a 1 c 800] ------- [2:1 1:0 29 1] [122 0] 2 2
r 153.299557736 _2_ AGT  --- 258 tcp 1040 [13a 2 c 800] ------- [1:0 2:1 29 2] [132 0] 2 2
r 153.301563151 _1_ AGT  --- 262 ack 40 [13a 1 c 800] ------- [2:1 1:0 29 1] [123 0] 2 2
r 153.313452592 _1_ AGT  --- 264 ack 40 [13a 1 c 800] ------- [2:1 1:0 29 1] [124 0] 2 2
r 153.315477552 _1_ AGT  --- 266 ack 40 [13a 1 c 800] ------- [2:1 1:0 29 1] [125 0] 2 2
r 153.345473316 _2_ AGT  --- 263 tcp 1040 [13a 2 c 800] ------- [1:0 2:1 29 2] [133 0] 2 2
r 153.357365482 _2_ AGT  --- 265 tcp 1040 [13a 2 c 800] ------- [1:0 2:1 29 2] [134 0] 2 2
r 153.369617647 _2_ AGT  --- 267 tcp 1040 [13a 2 c 800] ------- [1:0 2:1 29 2] [135 0] 2 2
r 153.383603356 _1_ AGT  --- 268 ack 40 [13a 1 c 800] ------- [2:1 1:0 29 1] [126 0] 2 2
r 153.397709517 _1_ AGT  --- 269 ack 40 [13a 1 c 800] ------- [2:1 1:0 29 1] [127 0] 2 2
r 153.409978953 _1_ AGT  --- 271 ack 40 [13a 1 c 800] ------- [2:1 1:0 29 1] [128 0] 2 2
r 153.411823910 _1_ AGT  --- 272 ack 40 [13a 1 c 800] ------- [2:1 1:0 29 1] [129 0] 2 2
r 153.421910229 _2_ AGT  --- 270 tcp 1040 [13a 2 c 800] ------- [1:0 2:1 29 2] [136 0] 2 2
r 153.431897003 _2_ AGT  --- 273 tcp 1040 [13a 2 c 800] ------- [1:0 2:1 29 2] [137 0] 2 2
r 153.447829478 _1_ AGT  --- 275 ack 40 [13a 1 c 800] ------- [2:1 1:0 29 1] [130 0] 2 2
r 153.460018911 _1_ AGT  --- 276 ack 40 [13a 1 c 800] ------- [2:1 1:0 29 1] [131 0] 2 2
r 153.470205228 _2_ AGT  --- 274 tcp 1040 [13a 2 c 800] ------- [1:0 2:1 29 2] [138 0] 2 2
r 153.492272289 _2_ AGT  --- 277 tcp 1040 [13a 2 c 800] ------- [1:0 2:1 29 2] [139 0] 2 2
r 153.514239347 _2_ AGT  --- 278 tcp 1040 [13a 2 c 800] ------- [1:0 2:1 29 2] [140 0] 2 2
r 153.526251500 _2_ AGT  --- 279 tcp 1040 [13a 2 c 800] ------- [1:0 2:1 29 2] [141 0] 2 2
r 153.536278268 _2_ AGT  --- 280 tcp 1040 [13a 2 c 800] ------- [1:0 2:1 29 2] [142 0] 2 2
r 153.546405035 _2_ AGT  --- 282 tcp 1040 [13a 2 c 800] ------- [1:0 2:1 29 2] [143 0] 2 2
r 153.562130719 _2_ AGT  --- 283 tcp 1040 [13a 2 c 800] ------- [1:0 2:1 29 2] [144 0] 2 2
r 153.566141507 _1_ AGT  --- 281 ack 40 [13a 1 c 800] ------- [2:1 1:0 29 1] [132 0] 2 2
r 153.578390934 _1_ AGT  --- 285 ack 40 [13a 1 c 800] ------- [2:1 1:0 29 1] [133 0] 2 2
r 153.580235884 _1_ AGT  --- 286 ack 40 [13a 1 c 800] ------- [2:1 1:0 29 1] [134 0] 2 2
r 153.600446671 _2_ AGT  --- 284 tcp 1040 [13a 2 c 800] ------- [1:0 2:1 29 2] [145 0] 2 2
r 153.612258817 _2_ AGT  --- 288 tcp 1040 [13a 2 c 800] ------- [1:0 2:1 29 2] [146 0] 2 2
r 153.616369602 _1_ AGT  --- 287 ack 40 [13a 1 c 800] ------- [2:1 1:0 29 1] [135 0] 2 2
r 153.646005335 _2_ AGT  --- 289 tcp 1040 [13a 2 c 800] ------- [1:0 2:1 29 2] [147 0] 2 2
r 153.650076117 _1_ AGT  --- 292 ack 40 [13a 1 c 800] ------- [2:1 1:0 29 1] [136 0] 2 2
r 153.661965539 _1_ AGT  --- 293 ack 40 [13a 1 c 800] ------- [2:1 1:0 29 1] [137 0] 2 2
r 153.672111847 _2_ AGT  --- 290 tcp 1040 [13a 2 c 800] ------- [1:0 2:1 29 2] [148 0] 2 2
r 153.684023987 _2_ AGT  --- 291 tcp 1040 [13a 2 c 800] ------- [1:0 2:1 29 2] [149 0] 2 2
r 153.685929387 _1_ AGT  --- 296 ack 40 [13a 1 c 800] ------- [2:1 1:0 29 1] [138 0] 2 2
r 153.695815694 _2_ AGT  --- 294 tcp 1040 [13a 2 c 800] ------- [1:0 2:1 29 2] [150 0] 2 2
r 153.698001094 _1_ AGT  --- 297 ack 40 [13a 1 c 800] ------- [2:1 1:0 29 1] [139 0] 2 2
r 153.729843477 _2_ AGT  --- 295 tcp 1040 [13a 2 c 800] ------- [1:0 2:1 29 2] [151 0] 2 2
r 153.733974254 _1_ AGT  --- 298 ack 40 [13a 1 c 800] ------- [2:1 1:0 29 1] [140 0] 2 2
r 153.747920378 _1_ AGT  --- 299 ack 40 [13a 1 c 800] ------- [2:1 1:0 29 1] [141 0] 2 2
r 153.749865323 _1_ AGT  --- 300 ack 40 [13a 1 c 800] ------- [2:1 1:0 29 1] [142 0] 2 2
r 153.761714739 _1_ AGT  --- 301 ack 40 [13a 1 c 800] ------- [2:1 1:0 29 1] [143 0] 2 2
r 153.783669099 _1_ AGT  --- 302 ack 40 [13a 1 c 800] ------- [2:1 1:0 29 1] [144 0] 2 2
r 153.813704814 _2_ AGT  --- 303 tcp 1040 [13a 2 c 800] ------- [1:0 2:1 29 2] [152 0] 2 2
r 153.825756944 _2_ AGT  --- 304 tcp 1040 [13a 2 c 800] ------- [1:0 2:1 29 2] [153 0] 2 2
r 153.829867715 _1_ AGT  --- 306 ack 40 [13a 1 c 800] ------- [2:1 1:0 29 1] [145 0] 2 2
r 153.832092656 _1_ AGT  --- 307 ack 40 [13a 1 c 800] ------- [2:1 1:0 29 1] [146 0] 2 2
r 153.861928367 _2_ AGT  --- 305 tcp 1040 [13a 2 c 800] ------- [1:0 2:1 29 2] [154 0] 2 2
r 153.873860493 _2_ AGT  --- 308 tcp 1040 [13a 2 c 800] ------- [1:0 2:1 29 2] [155 0] 2 2
r 153.876105886 _1_ AGT  --- 309 ack 40 [13a 1 c 800] ------- [2:1 1:0 29 1] [147 0] 2 2
r 153.898033352 _2_ AGT  --- 310 tcp 1040 [13a 2 c 800] ------- [1:0 2:1 29 2] [156 0] 2 2
r 153.902124118 _1_ AGT  --- 312 ack 40 [13a 1 c 800] ------- [2:1 1:0 29 1] [148 0] 2 2
r 153.922074884 _2_ AGT  --- 311 tcp 1040 [13a 2 c 800] ------- [1:0 2:1 29 2] [157 0] 2 2
r 153.926165648 _1_ AGT  --- 313 ack 40 [13a 1 c 800] ------- [2:1 1:0 29 1] [149 0] 2 2
r 153.946136412 _2_ AGT  --- 314 tcp 1040 [13a 2 c 800] ------- [1:0 2:1 29 2] [158 0] 2 2
r 153.948141801 _1_ AGT  --- 315 ack 40 [13a 1 c 800] ------- [2:1 1:0 29 1] [150 0] 2 2
r 153.958268095 _2_ AGT  --- 316 tcp 1040 [13a 2 c 800] ------- [1:0 2:1 29 2] [159 0] 2 2
r 153.962018857 _1_ AGT  --- 317 ack 40 [13a 1 c 800] ------- [2:1 1:0 29 1] [151 0] 2 2
r 153.981949619 _2_ AGT  --- 318 tcp 1040 [13a 2 c 800] ------- [1:0 2:1 29 2] [160 0] 2 2
r 154.005653315 _2_ AGT  --- 319 tcp 1040 [13a 2 c 800] ------- [1:0 2:1 29 2] [161 0] 2 2
r 154.017825430 _2_ AGT  --- 320 tcp 1040 [13a 2 c 800] ------- [1:0 2:1 29 2] [162 0] 2 2
r 154.029977544 _2_ AGT  --- 321 tcp 1040 [13a 2 c 800] ------- [1:0 2:1 29 2] [163 0] 2 2
r 154.042189657 _2_ AGT  --- 322 tcp 1040 [13a 2 c 800] ------- [1:0 2:1 29 2] [164 0] 2 2
r 154.046200413 _1_ AGT  --- 323 ack 40 [13a 1 c 800] ------- [2:1 1:0 29 1] [152 0] 2 2
r 154.058289814 _1_ AGT  --- 324 ack 40 [13a 1 c 800] ------- [2:1 1:0 29 1] [153 0] 2 2
r 154.068316103 _2_ AGT  --- 325 tcp 1040 [13a 2 c 800] ------- [1:0 2:1 29 2] [165 0] 2 2
r 154.090163095 _2_ AGT  --- 326 tcp 1040 [13a 2 c 800] ------- [1:0 2:1 29 2] [166 0] 2 2
r 154.092008479 _1_ AGT  --- 327 ack 40 [13a 1 c 800] ------- [2:1 1:0 29 1] [154 0] 2 2
r 154.111879232 _2_ AGT  --- 329 tcp 1040 [13a 2 c 800] ------- [1:0 2:1 29 2] [167 0] 2 2
r 154.113704615 _1_ AGT  --- 328 ack 40 [13a 1 c 800] ------- [2:1 1:0 29 1] [155 0] 2 2
r 154.115549546 _1_ AGT  --- 330 ack 40 [13a 1 c 800] ------- [2:1 1:0 29 1] [156 0] 2 2
r 154.125455832 _2_ AGT  --- 331 tcp 1040 [13a 2 c 800] ------- [1:0 2:1 29 2] [168 0] 2 2
r 154.131253320 _1_ AGT  --- 332 ack 40 [13a 1 c 800] ------- [2:1 1:0 29 1] [157 0] 2 2
r 154.161149001 _2_ AGT  --- 333 tcp 1040 [13a 2 c 800] ------- [1:0 2:1 29 2] [169 0] 2 2
r 154.177021363 _1_ AGT  --- 334 ack 40 [13a 1 c 800] ------- [2:1 1:0 29 1] [158 0] 2 2
r 154.197192111 _2_ AGT  --- 335 tcp 1040 [13a 2 c 800] ------- [1:0 2:1 29 2] [170 0] 2 2
r 154.201182857 _1_ AGT  --- 336 ack 40 [13a 1 c 800] ------- [2:1 1:0 29 1] [159 0] 2 2
r 154.221133603 _2_ AGT  --- 337 tcp 1040 [13a 2 c 800] ------- [1:0 2:1 29 2] [171 0] 2 2
r 154.225344348 _1_ AGT  --- 338 ack 40 [13a 1 c 800] ------- [2:1 1:0 29 1] [160 0] 2 2
r 154.237613738 _1_ AGT  --- 339 ack 40 [13a 1 c 800] ------- [2:1 1:0 29 1] [161 0] 2 2
r 154.239838665 _1_ AGT  --- 340 ack 40 [13a 1 c 800] ------- [2:1 1:0 29 1] [162 0] 2 2
r 154.251548055 _1_ AGT  --- 341 ack 40 [13a 1 c 800] ------- [2:1 1:0 29 1] [163 0] 2 2