s 150.000000000 _1_ AGT  --- 6 tcp 40 [0 0 0 0] ------- [1:0 2:1 32 0] [0 0] 0 1
s 150.035711862 _1_ AGT  --- 8 tcp 1040 [0 0 0 0] ------- [1:0 2:1 32 0] [1 0] 0 1
s 150.035711862 _1_ AGT  --- 9 tcp 1040 [0 0 0 0] ------- [1:0 2:1 32 0] [2 0] 0 1
s 150.061047125 _1_ AGT  --- 12 tcp 1040 [0 0 0 0] ------- [1:0 2:1 32 0] [3 0] 0 1
s 150.061047125 _1_ AGT  --- 13 tcp 1040 [0 0 0 0] ------- [1:0 2:1 32 0] [4 0] 0 1
s 150.063074322 _1_ AGT  --- 14 tcp 1040 [0 0 0 0] ------- [1:0 2:1 32 0] [5 0] 0 1
s 150.063074322 _1_ AGT  --- 15 tcp 1040 [0 0 0 0] ------- [1:0 2:1 32 0] [6 0] 0 1
s 150.074947117 _1_ AGT  --- 17 tcp 1040 [0 0 0 0] ------- [1:0 2:1 32 0] [7 0] 0 1
s 150.074947117 _1_ AGT  --- 18 tcp 1040 [0 0 0 0] ------- [1:0 2:1 32 0] [8 0] 0 1
s 150.095473265 _1_ AGT  --- 20 tcp 1040 [0 0 0 0] ------- [1:0 2:1 32 0] [9 0] 0 1
s 150.095473265 _1_ AGT  --- 21 tcp 1040 [0 0 0 0] ------- [1:0 2:1 32 0] [10 0] 0 1
s 150.123633237 _1_ AGT  --- 24 tcp 1040 [0 0 0 0] ------- [1:0 2:1 32 0] [11 0] 0 1
s 150.123633237 _1_ AGT  --- 25 tcp 1040 [0 0 0 0] ------- [1:0 2:1 32 0] [12 0] 0 1
s 150.125460429 _1_ AGT  --- 26 tcp 1040 [0 0 0 0] ------- [1:0 2:1 32 0] [13 0] 0 1
s 150.125460429 _1_ AGT  --- 27 tcp 1040 [0 0 0 0] ------- [1:0 2:1 32 0] [14 0] 0 1
s 150.147100410 _1_ AGT  --- 30 tcp 1040 [0 0 0 0] ------- [1:0 2:1 32 0] [15 0] 0 1
s 150.147100410 _1_ AGT  --- 31 tcp 1040 [0 0 0 0] ------- [1:0 2:1 32 0] [16 0] 0 1
s 150.159293196 _1_ AGT  --- 33 tcp 1040 [0 0 0 0] ------- [1:0 2:1 32 0] [17 0] 0 1
s 150.159293196 _1_ AGT  --- 34 tcp 1040 [0 0 0 0] ------- [1:0 2:1 32 0] [18 0] 0 1
s 150.171465982 _1_ AGT  --- 36 tcp 1040 [0 0 0 0] ------- [1:0 2:1 32 0] [19 0] 0 1
s 150.171465982 _1_ AGT  --- 37 tcp 1040 [0 0 0 0] ------- [1:0 2:1 32 0] [20 0] 0 1
s 150.175541973 _1_ AGT  --- 38 tcp 1040 [0 0 0 0] ------- [1:0 2:1 32 0] [21 0] 0 1
s 150.175541973 _1_ AGT  --- 39 tcp 1040 [0 0 0 0] ------- [1:0 2:1 32 0] [22 0] 0 1
s 150.189653153 _1_ AGT  --- 41 tcp 1040 [0 0 0 0] ------- [1:0 2:1 32 0] [23 0] 0 1
s 150.189653153 _1_ AGT  --- 42 tcp 1040 [0 0 0 0] ------- [1:0 2:1 32 0] [24 0] 0 1
s 150.201625935 _1_ AGT  --- 44 tcp 1040 [0 0 0 0] ------- [1:0 2:1 32 0] [25 0] 0 1
s 150.201625935 _1_ AGT  --- 45 tcp 1040 [0 0 0 0] ------- [1:0 2:1 32 0] [26 0] 0 1
s 150.214158717 _1_ AGT  --- 47 tcp 1040 [0 0 0 0] ------- [1:0 2:1 32 0] [27 0] 0 1
s 150.214158717 _1_ AGT  --- 48 tcp 1040 [0 0 0 0] ------- [1:0 2:1 32 0] [28 0] 0 1
s 150.226171497 _1_ AGT  --- 50 tcp 1040 [0 0 0 0] ------- [1:0 2:1 32 0] [29 0] 0 1
s 150.226171497 _1_ AGT  --- 51 tcp 1040 [0 0 0 0] ------- [1:0 2:1 32 0] [30 0] 0 1
s 150.238144276 _1_ AGT  --- 53 tcp 1040 [0 0 0 0] ------- [1:0 2:1 32 0] [31 0] 0 1
s 150.238144276 _1_ AGT  --- 54 tcp 1040 [0 0 0 0] ------- [1:0 2:1 32 0] [32 0] 0 1
s 150.250017054 _1_ AGT  --- 56 tcp 1040 [0 0 0 0] ------- [1:0 2:1 32 0] [33 0] 0 1
s 150.250017054 _1_ AGT  --- 57 tcp 1040 [0 0 0 0] ------- [1:0 2:1 32 0] [34 0] 0 1
s 150.262149831 _1_ AGT  --- 59 tcp 1040 [0 0 0 0] ------- [1:0 2:1 32 0] [35 0] 0 1
s 150.262149831 _1_ AGT  --- 60 tcp 1040 [0 0 0 0] ------- [1:0 2:1 32 0] [36 0] 0 1
s 150.274182607 _1_ AGT  --- 62 tcp 1040 [0 0 0 0] ------- [1:0 2:1 32 0] [37 0] 0 1
s 150.274182607 _1_ AGT  --- 63 tcp 1040 [0 0 0 0] ------- [1:0 2:1 32 0] [38 0] 0 1
s 150.286415381 _1_ AGT  --- 65 tcp 1040 [0 0 0 0] ------- [1:0 2:1 32 0] [39 0] 0 1
s 150.298508155 _1_ AGT  --- 67 tcp 1040 [0 0 0 0] ------- [1:0 2:1 32 0] [40 0] 0 1
s 150.320968108 _1_ AGT  --- 70 tcp 1040 [0 0 0 0] ------- [1:0 2:1 32 0] [41 0] 0 1
s 150.332900878 _1_ AGT  --- 72 tcp 1040 [0 0 0 0] ------- [1:0 2:1 32 0] [42 0] 0 1
s 150.334808058 _1_ AGT  --- 73 tcp 1040 [0 0 0 0] ------- [1:0 2:1 32 0] [43 0] 0 1
s 150.356648006 _1_ AGT  --- 76 tcp 1040 [0 0 0 0] ------- [1:0 2:1 32 0] [44 0] 0 1
s 150.358555184 _1_ AGT  --- 77 tcp 1040 [0 0 0 0] ------- [1:0 2:1 32 0] [45 0] 0 1
s 150.370447951 _1_ AGT  --- 79 tcp 1040 [0 0 0 0] ------- [1:0 2:1 32 0] [46 0] 0 1
s 150.382560716 _1_ AGT  --- 81 tcp 1040 [0 0 0 0] ------- [1:0 2:1 32 0] [47 0] 0 1
s 150.394633481 _1_ AGT  --- 83 tcp 1040 [0 0 0 0] ------- [1:0 2:1 32 0] [48 0] 0 1
s 150.426680593 _1_ AGT  --- 87 tcp 1040 [0 0 0 0] ------- [1:0 2:1 32 0] [49 0] 0 1
s 150.448420526 _1_ AGT  --- 90 tcp 1040 [0 0 0 0] ------- [1:0 2:1 32 0] [50 0] 0 1
s 150.460553285 _1_ AGT  --- 92 tcp 1040 [0 0 0 0] ------- [1:0 2:1 32 0] [51 0] 0 1
s 150.482493213 _1_ AGT  --- 95 tcp 1040 [0 0 0 0] ------- [1:0 2:1 32 0] [52 0] 0 1
s 150.514120306 _1_ AGT  --- 99 tcp 1040 [0 0 0 0] ------- [1:0 2:1 32 0] [53 0] 0 1
s 150.516047474 _1_ AGT  --- 100 tcp 1040 [0 0 0 0] ------- [1:0 2:1 32 0] [54 0] 0 1
s 150.538007394 _1_ AGT  --- 103 tcp 1040 [0 0 0 0] ------- [1:0 2:1 32 0] [55 0] 0 1
s 150.540014561 _1_ AGT  --- 104 tcp 1040 [0 0 0 0] ------- [1:0 2:1 32 0] [56 0] 0 1
s 150.552167311 _1_ AGT  --- 106 tcp 1040 [0 0 0 0] ------- [1:0 2:1 32 0] [57 0] 0 1
s 150.554014477 _1_ AGT  --- 107 tcp 1040 [0 0 0 0] ------- [1:0 2:1 32 0] [58 0] 0 1
s 150.556001643 _1_ AGT  --- 108 tcp 1040 [0 0 0 0] ------- [1:0 2:1 32 0] [59 0] 0 1
s 150.568194391 _1_ AGT  --- 110 tcp 1040 [0 0 0 0] ------- [1:0 2:1 32 0] [60 0] 0 1
s 150.580127138 _1_ AGT  --- 112 tcp 1040 [0 0 0 0] ------- [1:0 2:1 32 0] [61 0] 0 1
s 150.591959884 _1_ AGT  --- 114 tcp 1040 [0 0 0 0] ------- [1:0 2:1 32 0] [62 0] 0 1
s 150.594067048 _1_ AGT  --- 115 tcp 1040 [0 0 0 0] ------- [1:0 2:1 32 0] [63 0] 0 1
s 150.625954117 _1_ AGT  --- 119 tcp 1040 [0 0 0 0] ------- [1:0 2:1 32 0] [64 0] 0 1
s 150.627841278 _1_ AGT  --- 120 tcp 1040 [0 0 0 0] ------- [1:0 2:1 32 0] [65 0] 0 1
s 150.649701180 _1_ AGT  --- 123 tcp 1040 [0 0 0 0] ------- [1:0 2:1 32 0] [66 0] 0 1
s 150.651568340 _1_ AGT  --- 124 tcp 1040 [0 0 0 0] ------- [1:0 2:1 32 0] [67 0] 0 1
s 150.663781080 _1_ AGT  --- 126 tcp 1040 [0 0 0 0] ------- [1:0 2:1 32 0] [68 0] 0 1
s 150.665708239 _1_ AGT  --- 127 tcp 1040 [0 0 0 0] ------- [1:0 2:1 32 0] [69 0] 0 1
s 150.677680977 _1_ AGT  --- 129 tcp 1040 [0 0 0 0] ------- [1:0 2:1 32 0] [70 0] 0 1
s 150.679508135 _1_ AGT  --- 130 tcp 1040 [0 0 0 0] ------- [1:0 2:1 32 0] [71 0] 0 1
s 150.681615293 _1_ AGT  --- 131 tcp 1040 [0 0 0 0] ------- [1:0 2:1 32 0] [72 0] 0 1
s 150.693528030 _1_ AGT  --- 133 tcp 1040 [0 0 0 0] ------- [1:0 2:1 32 0] [73 0] 0 1
s 150.705680765 _1_ AGT  --- 135 tcp 1040 [0 0 0 0] ------- [1:0 2:1 32 0] [74 0] 0 1
s 150.727920655 _1_ AGT  --- 138 tcp 1040 [0 0 0 0] ------- [1:0 2:1 32 0] [75 0] 0 1
s 150.740053387 _1_ AGT  --- 140 tcp 1040 [0 0 0 0] ------- [1:0 2:1 32 0] [76 0] 0 1
s 150.751886118 _1_ AGT  --- 142 tcp 1040 [0 0 0 0] ------- [1:0 2:1 32 0] [77 0] 0 1
s 150.773926001 _1_ AGT  --- 145 tcp 1040 [0 0 0 0] ------- [1:0 2:1 32 0] [78 0] 0 1
s 150.775933153 _1_ AGT  --- 146 tcp 1040 [0 0 0 0] ------- [1:0 2:1 32 0] [79 0] 0 1
s 150.787845881 _1_ AGT  --- 148 tcp 1040 [0 0 0 0] ------- [1:0 2:1 32 0] [80 0] 0 1
s 150.799678608 _1_ AGT  --- 150 tcp 1040 [0 0 0 0] ------- [1:0 2:1 32 0] [81 0] 0 1
s 150.801605759 _1_ AGT  --- 151 tcp 1040 [0 0 0 0] ------- [1:0 2:1 32 0] [82 0] 0 1
s 150.813578484 _1_ AGT  --- 153 tcp 1040 [0 0 0 0] ------- [1:0 2:1 32 0] [83 0] 0 1
s 150.845745505 _1_ AGT  --- 157 tcp 1040 [0 0 0 0] ------- [1:0 2:1 32 0] [84 0] 0 1
s 150.847772653 _1_ AGT  --- 158 tcp 1040 [0 0 0 0] ------- [1:0 2:1 32 0] [85 0] 0 1
s 150.859785374 _1_ AGT  --- 160 tcp 1040 [0 0 0 0] ------- [1:0 2:1 32 0] [86 0] 0 1
s 150.891692385 _1_ AGT  --- 164 tcp 1040 [0 0 0 0] ------- [1:0 2:1 32 0] [87 0] 0 1
s 150.903645102 _1_ AGT  --- 166 tcp 1040 [0 0 0 0] ------- [1:0 2:1 32 0] [88 0] 0 1
s 150.925464961 _1_ AGT  --- 169 tcp 1040 [0 0 0 0] ------- [1:0 2:1 32 0] [89 0] 0 1
s 150.937377675 _1_ AGT  --- 171 tcp 1040 [0 0 0 0] ------- [1:0 2:1 32 0] [90 0] 0 1
s 150.949610388 _1_ AGT  --- 173 tcp 1040 [0 0 0 0] ------- [1:0 2:1 32 0] [91 0] 0 1
s 150.961403100 _1_ AGT  --- 175 tcp 1040 [0 0 0 0] ------- [1:0 2:1 32 0] [92 0] 0 1
s 150.973395810 _1_ AGT  --- 177 tcp 1040 [0 0 0 0] ------- [1:0 2:1 32 0] [93 0] 0 1
s 150.985228519 _1_ AGT  --- 179 tcp 1040 [0 0 0 0] ------- [1:0 2:1 32 0] [94 0] 0 1
s 150.997501228 _1_ AGT  --- 181 tcp 1040 [0 0 0 0] ------- [1:0 2:1 32 0] [95 0] 0 1
s 150.999568366 _1_ AGT  --- 182 tcp 1040 [0 0 0 0] ------- [1:0 2:1 32 0] [96 0] 0 1
s 151.021568210 _1_ AGT  --- 185 tcp 1040 [0 0 0 0] ------- [1:0 2:1 32 0] [97 0] 0 1
s 151.023515347 _1_ AGT  --- 186 tcp 1040 [0 0 0 0] ------- [1:0 2:1 32 0] [98 0] 0 1
s 151.025402484 _1_ AGT  --- 187 tcp 1040 [0 0 0 0] ------- [1:0 2:1 32 0] [99 0] 0 1
s 151.037355189 _1_ AGT  --- 189 tcp 1040 [0 0 0 0] ------- [1:0 2:1 32 0] [100 0] 0 1
s 151.049227892 _1_ AGT  --- 191 tcp 1040 [0 0 0 0] ------- [1:0 2:1 32 0] [101 0] 0 1
s 151.071187729 _1_ AGT  --- 194 tcp 1040 [0 0 0 0] ------- [1:0 2:1 32 0] [102 0] 0 1
s 151.083100429 _1_ AGT  --- 196 tcp 1040 [0 0 0 0] ------- [1:0 2:1 32 0] [103 0] 0 1
s 151.095293128 _1_ AGT  --- 198 tcp 1040 [0 0 0 0] ------- [1:0 2:1 32 0] [104 0] 0 1
s 151.097220260 _1_ AGT  --- 199 tcp 1040 [0 0 0 0] ------- [1:0 2:1 32 0] [105 0] 0 1
s 151.138954350 _1_ AGT  --- 204 tcp 1040 [0 0 0 0] ------- [1:0 2:1 32 0] [106 0] 0 1
s 151.150987044 _1_ AGT  --- 206 tcp 1040 [0 0 0 0] ------- [1:0 2:1 32 0] [107 0] 0 1
s 151.152934173 _1_ AGT  --- 207 tcp 1040 [0 0 0 0] ------- [1:0 2:1 32 0] [108 0] 0 1
s 151.154981302 _1_ AGT  --- 208 tcp 1040 [0 0 0 0] ------- [1:0 2:1 32 0] [109 0] 0 1
s 151.176941122 _1_ AGT  --- 211 tcp 1040 [0 0 0 0] ------- [1:0 2:1 32 0] [110 0] 0 1
s 151.178868249 _1_ AGT  --- 212 tcp 1040 [0 0 0 0] ------- [1:0 2:1 32 0] [111 0] 0 1
s 151.180715376 _1_ AGT  --- 213 tcp 1040 [0 0 0 0] ------- [1:0 2:1 32 0] [112 0] 0 1
s 151.192588067 _1_ AGT  --- 215 tcp 1040 [0 0 0 0] ------- [1:0 2:1 32 0] [113 0] 0 1
s 151.204680756 _1_ AGT  --- 217 tcp 1040 [0 0 0 0] ------- [1:0 2:1 32 0] [114 0] 0 1
s 151.226480568 _1_ AGT  --- 220 tcp 1040 [0 0 0 0] ------- [1:0 2:1 32 0] [115 0] 0 1
s 151.228627692 _1_ AGT  --- 221 tcp 1040 [0 0 0 0] ------- [1:0 2:1 32 0] [116 0] 0 1
s 151.240620378 _1_ AGT  --- 223 tcp 1040 [0 0 0 0] ------- [1:0 2:1 32 0] [117 0] 0 1
s 151.252373062 _1_ AGT  --- 225 tcp 1040 [0 0 0 0] ------- [1:0 2:1 32 0] [118 0] 0 1
s 151.273952868 _1_ AGT  --- 228 tcp 1040 [0 0 0 0] ------- [1:0 2:1 32 0] [119 0] 0 1
s 151.285925549 _1_ AGT  --- 230 tcp 1040 [0 0 0 0] ------- [1:0 2:1 32 0] [120 0] 0 1
s 151.298178229 _1_ AGT  --- 232 tcp 1040 [0 0 0 0] ------- [1:0 2:1 32 0] [121 0] 0 1
s 151.300325349 _1_ AGT  --- 233 tcp 1040 [0 0 0 0] ------- [1:0 2:1 32 0] [122 0] 0 1
s 151.312178028 _1_ AGT  --- 235 tcp 1040 [0 0 0 0] ------- [1:0 2:1 32 0] [123 0] 0 1
s 151.314105147 _1_ AGT  --- 236 tcp 1040 [0 0 0 0] ------- [1:0 2:1 32 0] [124 0] 0 1
s 151.315972266 _1_ AGT  --- 237 tcp 1040 [0 0 0 0] ------- [1:0 2:1 32 0] [125 0] 0 1
s 151.338092061 _1_ AGT  --- 240 tcp 1040 [0 0 0 0] ------- [1:0 2:1 32 0] [126 0] 0 1
s 151.350344737 _1_ AGT  --- 242 tcp 1040 [0 0 0 0] ------- [1:0 2:1 32 0] [127 0] 0 1
s 151.362257411 _1_ AGT  --- 244 tcp 1040 [0 0 0 0] ------- [1:0 2:1 32 0] [128 0] 0 1
s 151.364404527 _1_ AGT  --- 245 tcp 1040 [0 0 0 0] ------- [1:0 2:1 32 0] [129 0] 0 1
s 151.376557200 _1_ AGT  --- 247 tcp 1040 [0 0 0 0] ------- [1:0 2:1 32 0] [130 0] 0 1
s 151.388549872 _1_ AGT  --- 249 tcp 1040 [0 0 0 0] ------- [1:0 2:1 32 0] [131 0] 0 1
s 151.400802543 _1_ AGT  --- 251 tcp 1040 [0 0 0 0] ------- [1:0 2:1 32 0] [132 0] 0 1
s 151.412795212 _1_ AGT  --- 253 tcp 1040 [0 0 0 0] ------- [1:0 2:1 32 0] [133 0] 0 1
s 151.424807881 _1_ AGT  --- 255 tcp 1040 [0 0 0 0] ------- [1:0 2:1 32 0] [134 0] 0 1
s 151.436700548 _1_ AGT  --- 257 tcp 1040 [0 0 0 0] ------- [1:0 2:1 32 0] [135 0] 0 1
s 151.459100325 _1_ AGT  --- 260 tcp 1040 [0 0 0 0] ------- [1:0 2:1 32 0] [136 0] 0 1
s 151.471192989 _1_ AGT  --- 262 tcp 1040 [0 0 0 0] ------- [1:0 2:1 32 0] [137 0] 0 1
s 151.473360098 _1_ AGT  --- 263 tcp 1040 [0 0 0 0] ------- [1:0 2:1 32 0] [138 0] 0 1
s 151.495359869 _1_ AGT  --- 266 tcp 1040 [0 0 0 0] ------- [1:0 2:1 32 0] [139 0] 0 1
s 151.527266743 _1_ AGT  --- 270 tcp 1040 [0 0 0 0] ------- [1:0 2:1 32 0] [140 0] 0 1
s 151.529593848 _1_ AGT  --- 271 tcp 1040 [0 0 0 0] ------- [1:0 2:1 32 0] [141 0] 0 1
s 151.541286506 _1_ AGT  --- 273 tcp 1040 [0 0 0 0] ------- [1:0 2:1 32 0] [142 0] 0 1
s 151.553499163 _1_ AGT  --- 275 tcp 1040 [0 0 0 0] ------- [1:0 2:1 32 0] [143 0] 0 1
s 151.555426267 _1_ AGT  --- 276 tcp 1040 [0 0 0 0] ------- [1:0 2:1 32 0] [144 0] 0 1
s 151.557313371 _1_ AGT  --- 277 tcp 1040 [0 0 0 0] ------- [1:0 2:1 32 0] [145 0] 0 1
s 151.579393129 _1_ AGT  --- 280 tcp 1040 [0 0 0 0] ------- [1:0 2:1 32 0] [146 0] 0 1
s 151.601092883 _1_ AGT  --- 283 tcp 1040 [0 0 0 0] ------- [1:0 2:1 32 0] [147 0] 0 1
s 151.603179984 _1_ AGT  --- 284 tcp 1040 [0 0 0 0] ------- [1:0 2:1 32 0] [148 0] 0 1
s 151.635066834 _1_ AGT  --- 288 tcp 1040 [0 0 0 0] ------- [1:0 2:1 32 0] [149 0] 0 1
s 151.647199482 _1_ AGT  --- 290 tcp 1040 [0 0 0 0] ------- [1:0 2:1 32 0] [150 0] 0 1
s 151.659392129 _1_ AGT  --- 292 tcp 1040 [0 0 0 0] ------- [1:0 2:1 32 0] [151 0] 0 1
s 151.671404775 _1_ AGT  --- 294 tcp 1040 [0 0 0 0] ------- [1:0 2:1 32 0] [152 0] 0 1
s 151.693284515 _1_ AGT  --- 297 tcp 1040 [0 0 0 0] ------- [1:0 2:1 32 0] [153 0] 0 1
s 151.695311611 _1_ AGT  --- 298 tcp 1040 [0 0 0 0] ------- [1:0 2:1 32 0] [154 0] 0 1
s 151.707404253 _1_ AGT  --- 300 tcp 1040 [0 0 0 0] ------- [1:0 2:1 32 0] [155 0] 0 1
s 151.719156895 _1_ AGT  --- 302 tcp 1040 [0 0 0 0] ------- [1:0 2:1 32 0] [156 0] 0 1
s 151.721163988 _1_ AGT  --- 303 tcp 1040 [0 0 0 0] ------- [1:0 2:1 32 0] [157 0] 0 1
s 151.733036629 _1_ AGT  --- 305 tcp 1040 [0 0 0 0] ------- [1:0 2:1 32 0] [158 0] 0 1
s 151.735063721 _1_ AGT  --- 306 tcp 1040 [0 0 0 0] ------- [1:0 2:1 32 0] [159 0] 0 1
s 151.746956360 _1_ AGT  --- 308 tcp 1040 [0 0 0 0] ------- [1:0 2:1 32 0] [160 0] 0 1
s 151.759088998 _1_ AGT  --- 310 tcp 1040 [0 0 0 0] ------- [1:0 2:1 32 0] [161 0] 0 1
s 151.771201634 _1_ AGT  --- 312 tcp 1040 [0 0 0 0] ------- [1:0 2:1 32 0] [162 0] 0 1
s 151.783254270 _1_ AGT  --- 314 tcp 1040 [0 0 0 0] ------- [1:0 2:1 32 0] [163 0] 0 1
s 151.804933993 _1_ AGT  --- 317 tcp 1040 [0 0 0 0] ------- [1:0 2:1 32 0] [164 0] 0 1
s 151.817166625 _1_ AGT  --- 319 tcp 1040 [0 0 0 0] ------- [1:0 2:1 32 0] [165 0] 0 1
s 151.819353713 _1_ AGT  --- 320 tcp 1040 [0 0 0 0] ------- [1:0 2:1 32 0] [166 0] 0 1
s 151.831246344 _1_ AGT  --- 322 tcp 1040 [0 0 0 0] ------- [1:0 2:1 32 0] [167 0] 0 1
s 151.862953145 _1_ AGT  --- 326 tcp 1040 [0 0 0 0] ------- [1:0 2:1 32 0] [168 0] 0 1
s 151.885032856 _1_ AGT  --- 329 tcp 1040 [0 0 0 0] ------- [1:0 2:1 32 0] [169 0] 0 1
s 151.886999939 _1_ AGT  --- 330 tcp 1040 [0 0 0 0] ------- [1:0 2:1 32 0] [170 0] 0 1
s 151.888967023 _1_ AGT  --- 331 tcp 1040 [0 0 0 0] ------- [1:0 2:1 32 0] [171 0] 0 1
s 151.901139648 _1_ AGT  --- 333 tcp 1040 [0 0 0 0] ------- [1:0 2:1 32 0] [172 0] 0 1
s 151.923019352 _1_ AGT  --- 336 tcp 1040 [0 0 0 0] ------- [1:0 2:1 32 0] [173 0] 0 1
s 151.934971974 _1_ AGT  --- 338 tcp 1040 [0 0 0 0] ------- [1:0 2:1 32 0] [174 0] 0 1
s 151.947104594 _1_ AGT  --- 340 tcp 1040 [0 0 0 0] ------- [1:0 2:1 32 0] [175 0] 0 1
s 151.958797213 _1_ AGT  --- 342 tcp 1040 [0 0 0 0] ------- [1:0 2:1 32 0] [176 0] 0 1
s 151.990503987 _1_ AGT  --- 347 tcp 1040 [0 0 0 0] ------- [1:0 2:1 32 0] [177 0] 0 1
s 152.002576602 _1_ AGT  --- 349 tcp 1040 [0 0 0 0] ------- [1:0 2:1 32 0] [178 0] 0 1
s 152.004483679 _1_ AGT  --- 350 tcp 1040 [0 0 0 0] ------- [1:0 2:1 32 0] [179 0] 0 1
s 152.016296292 _1_ AGT  --- 352 tcp 1040 [0 0 0 0] ------- [1:0 2:1 32 0] [180 0] 0 1
s 152.028388905 _1_ AGT  --- 354 tcp 1040 [0 0 0 0] ------- [1:0 2:1 32 0] [181 0] 0 1
s 152.040241517 _1_ AGT  --- 356 tcp 1040 [0 0 0 0] ------- [1:0 2:1 32 0] [182 0] 0 1
s 152.052274128 _1_ AGT  --- 358 tcp 1040 [0 0 0 0] ------- [1:0 2:1 32 0] [183 0] 0 1
s 152.054461201 _1_ AGT  --- 359 tcp 1040 [0 0 0 0] ------- [1:0 2:1 32 0] [184 0] 0 1
s 152.066473810 _1_ AGT  --- 361 tcp 1040 [0 0 0 0] ------- [1:0 2:1 32 0] [185 0] 0 1
s 152.078366418 _1_ AGT  --- 363 tcp 1040 [0 0 0 0] ------- [1:0 2:1 32 0] [186 0] 0 1
s 152.090579025 _1_ AGT  --- 365 tcp 1040 [0 0 0 0] ------- [1:0 2:1 32 0] [187 0] 0 1
s 152.102731631 _1_ AGT  --- 367 tcp 1040 [0 0 0 0] ------- [1:0 2:1 32 0] [188 0] 0 1
s 152.114424236 _1_ AGT  --- 369 tcp 1040 [0 0 0 0] ------- [1:0 2:1 32 0] [189 0] 0 1
s 152.126536840 _1_ AGT  --- 371 tcp 1040 [0 0 0 0] ------- [1:0 2:1 32 0] [190 0] 0 1
s 152.148256510 _1_ AGT  --- 374 tcp 1040 [0 0 0 0] ------- [1:0 2:1 32 0] [191 0] 0 1
s 152.150463578 _1_ AGT  --- 375 tcp 1040 [0 0 0 0] ------- [1:0 2:1 32 0] [192 0] 0 1
s 152.162476178 _1_ AGT  --- 377 tcp 1040 [0 0 0 0] ------- [1:0 2:1 32 0] [193 0] 0 1
s 152.174328778 _1_ AGT  --- 379 tcp 1040 [0 0 0 0] ------- [1:0 2:1 32 0] [194 0] 0 1
s 152.176235843 _1_ AGT  --- 380 tcp 1040 [0 0 0 0] ------- [1:0 2:1 32 0] [195 0] 0 1
s 152.188468442 _1_ AGT  --- 382 tcp 1040 [0 0 0 0] ------- [1:0 2:1 32 0] [196 0] 0 1
s 152.200661039 _1_ AGT  --- 384 tcp 1040 [0 0 0 0] ------- [1:0 2:1 32 0] [197 0] 0 1
s 152.202568103 _1_ AGT  --- 385 tcp 1040 [0 0 0 0] ------- [1:0 2:1 32 0] [198 0] 0 1
s 152.224607761 _1_ AGT  --- 388 tcp 1040 [0 0 0 0] ------- [1:0 2:1 32 0] [199 0] 0 1
s 152.246707417 _1_ AGT  --- 391 tcp 1040 [0 0 0 0] ------- [1:0 2:1 32 0] [200 0] 0 1
s 152.258820008 _1_ AGT  --- 393 tcp 1040 [0 0 0 0] ------- [1:0 2:1 32 0] [201 0] 0 1
s 152.260667069 _1_ AGT  --- 394 tcp 1040 [0 0 0 0] ------- [1:0 2:1 32 0] [202 0] 0 1
s 152.262554129 _1_ AGT  --- 395 tcp 1040 [0 0 0 0] ------- [1:0 2:1 32 0] [203 0] 0 1
s 152.274506720 _1_ AGT  --- 397 tcp 1040 [0 0 0 0] ------- [1:0 2:1 32 0] [204 0] 0 1
s 152.286559309 _1_ AGT  --- 399 tcp 1040 [0 0 0 0] ------- [1:0 2:1 32 0] [205 0] 0 1
s 152.318466012 _1_ AGT  --- 403 tcp 1040 [0 0 0 0] ------- [1:0 2:1 32 0] [206 0] 0 1
s 152.330458597 _1_ AGT  --- 405 tcp 1040 [0 0 0 0] ------- [1:0 2:1 32 0] [207 0] 0 1
s 152.332345653 _1_ AGT  --- 406 tcp 1040 [0 0 0 0] ------- [1:0 2:1 32 0] [208 0] 0 1
s 152.344498237 _1_ AGT  --- 408 tcp 1040 [0 0 0 0] ------- [1:0 2:1 32 0] [209 0] 0 1
s 152.346505292 _1_ AGT  --- 409 tcp 1040 [0 0 0 0] ------- [1:0 2:1 32 0] [210 0] 0 1
s 152.397866088 _1_ AGT  --- 415 tcp 1040 [0 0 0 0] ------- [1:0 2:1 32 0] [211 0] 0 1
s 152.409778666 _1_ AGT  --- 417 tcp 1040 [0 0 0 0] ------- [1:0 2:1 32 0] [212 0] 0 1
s 152.422011242 _1_ AGT  --- 419 tcp 1040 [0 0 0 0] ------- [1:0 2:1 32 0] [213 0] 0 1
s 152.433983818 _1_ AGT  --- 421 tcp 1040 [0 0 0 0] ------- [1:0 2:1 32 0] [214 0] 0 1
s 152.435810868 _1_ AGT  --- 422 tcp 1040 [0 0 0 0] ------- [1:0 2:1 32 0] [215 0] 0 1
s 152.437657917 _1_ AGT  --- 423 tcp 1040 [0 0 0 0] ------- [1:0 2:1 32 0] [216 0] 0 1
s 152.439544967 _1_ AGT  --- 424 tcp 1040 [0 0 0 0] ------- [1:0 2:1 32 0] [217 0] 0 1
s 152.441472017 _1_ AGT  --- 425 tcp 1040 [0 0 0 0] ------- [1:0 2:1 32 0] [218 0] 0 1
s 152.453604590 _1_ AGT  --- 427 tcp 1040 [0 0 0 0] ------- [1:0 2:1 32 0] [219 0] 0 1
s 152.475584211 _1_ AGT  --- 430 tcp 1040 [0 0 0 0] ------- [1:0 2:1 32 0] [220 0] 0 1
s 152.477711258 _1_ AGT  --- 431 tcp 1040 [0 0 0 0] ------- [1:0 2:1 32 0] [221 0] 0 1
s 152.489643828 _1_ AGT  --- 433 tcp 1040 [0 0 0 0] ------- [1:0 2:1 32 0] [222 0] 0 1
s 152.491550875 _1_ AGT  --- 434 tcp 1040 [0 0 0 0] ------- [1:0 2:1 32 0] [223 0] 0 1
s 152.503703444 _1_ AGT  --- 436 tcp 1040 [0 0 0 0] ------- [1:0 2:1 32 0] [224 0] 0 1
s 152.535750100 _1_ AGT  --- 440 tcp 1040 [0 0 0 0] ------- [1:0 2:1 32 0] [225 0] 0 1
s 152.537697144 _1_ AGT  --- 441 tcp 1040 [0 0 0 0] ------- [1:0 2:1 32 0] [226 0] 0 1
s 152.539704188 _1_ AGT  --- 442 tcp 1040 [0 0 0 0] ------- [1:0 2:1 32 0] [227 0] 0 1
s 152.581437878 _1_ AGT  --- 447 tcp 1040 [0 0 0 0] ------- [1:0 2:1 32 0] [228 0] 0 1
s 152.593230439 _1_ AGT  --- 449 tcp 1040 [0 0 0 0] ------- [1:0 2:1 32 0] [229 0] 0 1
s 152.595097479 _1_ AGT  --- 450 tcp 1040 [0 0 0 0] ------- [1:0 2:1 32 0] [230 0] 0 1
s 152.597004519 _1_ AGT  --- 451 tcp 1040 [0 0 0 0] ------- [1:0 2:1 32 0] [231 0] 0 1
s 152.599071559 _1_ AGT  --- 452 tcp 1040 [0 0 0 0] ------- [1:0 2:1 32 0] [232 0] 0 1
s 152.611084118 _1_ AGT  --- 454 tcp 1040 [0 0 0 0] ------- [1:0 2:1 32 0] [233 0] 0 1
s 152.622916676 _1_ AGT  --- 456 tcp 1040 [0 0 0 0] ------- [1:0 2:1 32 0] [234 0] 0 1
s 152.635109233 _1_ AGT  --- 458 tcp 1040 [0 0 0 0] ------- [1:0 2:1 32 0] [235 0] 0 1
s 152.657188826 _1_ AGT  --- 461 tcp 1040 [0 0 0 0] ------- [1:0 2:1 32 0] [236 0] 0 1
s 152.679068415 _1_ AGT  --- 464 tcp 1040 [0 0 0 0] ------- [1:0 2:1 32 0] [237 0] 0 1
s 152.691080967 _1_ AGT  --- 466 tcp 1040 [0 0 0 0] ------- [1:0 2:1 32 0] [238 0] 0 1
s 152.692988001 _1_ AGT  --- 467 tcp 1040 [0 0 0 0] ------- [1:0 2:1 32 0] [239 0] 0 1
s 152.706842228 _1_ AGT  --- 468 tcp 1040 [0 0 0 0] ------- [1:0 2:1 32 0] [240 0] 0 1
s 152.718574777 _1_ AGT  --- 470 tcp 1040 [0 0 0 0] ------- [1:0 2:1 32 0] [241 0] 0 1
s 152.731187325 _1_ AGT  --- 472 tcp 1040 [0 0 0 0] ------- [1:0 2:1 32 0] [242 0] 0 1
s 152.753226903 _1_ AGT  --- 475 tcp 1040 [0 0 0 0] ------- [1:0 2:1 32 0] [243 0] 0 1
s 152.765179448 _1_ AGT  --- 477 tcp 1040 [0 0 0 0] ------- [1:0 2:1 32 0] [244 0] 0 1
s 152.767126478 _1_ AGT  --- 478 tcp 1040 [0 0 0 0] ------- [1:0 2:1 32 0] [245 0] 0 1
s 152.789606050 _1_ AGT  --- 481 tcp 1040 [0 0 0 0] ------- [1:0 2:1 32 0] [246 0] 0 1
s 152.791433079 _1_ AGT  --- 482 tcp 1040 [0 0 0 0] ------- [1:0 2:1 32 0] [247 0] 0 1
s 152.803665620 _1_ AGT  --- 484 tcp 1040 [0 0 0 0] ------- [1:0 2:1 32 0] [248 0] 0 1
s 152.815758161 _1_ AGT  --- 486 tcp 1040 [0 0 0 0] ------- [1:0 2:1 32 0] [249 0] 0 1
s 152.827730700 _1_ AGT  --- 488 tcp 1040 [0 0 0 0] ------- [1:0 2:1 32 0] [250 0] 0 1
s 152.839483238 _1_ AGT  --- 490 tcp 1040 [0 0 0 0] ------- [1:0 2:1 32 0] [251 0] 0 1
s 152.851615776 _1_ AGT  --- 492 tcp 1040 [0 0 0 0] ------- [1:0 2:1 32 0] [252 0] 0 1
s 152.873655335 _1_ AGT  --- 495 tcp 1040 [0 0 0 0] ------- [1:0 2:1 32 0] [253 0] 0 1
s 152.885727869 _1_ AGT  --- 497 tcp 1040 [0 0 0 0] ------- [1:0 2:1 32 0] [254 0] 0 1
s 152.887654892 _1_ AGT  --- 498 tcp 1040 [0 0 0 0] ------- [1:0 2:1 32 0] [255 0] 0 1
s 152.899627424 _1_ AGT  --- 500 tcp 1040 [0 0 0 0] ------- [1:0 2:1 32 0] [256 0] 0 1
s 152.921326977 _1_ AGT  --- 503 tcp 1040 [0 0 0 0] ------- [1:0 2:1 32 0] [257 0] 0 1
s 152.933519506 _1_ AGT  --- 505 tcp 1040 [0 0 0 0] ------- [1:0 2:1 32 0] [258 0] 0 1
s 152.935466526 _1_ AGT  --- 506 tcp 1040 [0 0 0 0] ------- [1:0 2:1 32 0] [259 0] 0 1
s 152.947459054 _1_ AGT  --- 508 tcp 1040 [0 0 0 0] ------- [1:0 2:1 32 0] [260 0] 0 1
s 152.979265616 _1_ AGT  --- 512 tcp 1040 [0 0 0 0] ------- [1:0 2:1 32 0] [261 0] 0 1
s 152.991478140 _1_ AGT  --- 514 tcp 1040 [0 0 0 0] ------- [1:0 2:1 32 0] [262 0] 0 1
s 153.003250664 _1_ AGT  --- 516 tcp 1040 [0 0 0 0] ------- [1:0 2:1 32 0] [263 0] 0 1
s 153.025170200 _1_ AGT  --- 519 tcp 1040 [0 0 0 0] ------- [1:0 2:1 32 0] [264 0] 0 1
s 153.037282720 _1_ AGT  --- 521 tcp 1040 [0 0 0 0] ------- [1:0 2:1 32 0] [265 0] 0 1
s 153.049335240 _1_ AGT  --- 523 tcp 1040 [0 0 0 0] ------- [1:0 2:1 32 0] [266 0] 0 1
s 153.061347758 _1_ AGT  --- 525 tcp 1040 [0 0 0 0] ------- [1:0 2:1 32 0] [267 0] 0 1
s 153.073620275 _1_ AGT  --- 527 tcp 1040 [0 0 0 0] ------- [1:0 2:1 32 0] [268 0] 0 1
s 153.085592790 _1_ AGT  --- 529 tcp 1040 [0 0 0 0] ------- [1:0 2:1 32 0] [269 0] 0 1
s 153.087419801 _1_ AGT  --- 530 tcp 1040 [0 0 0 0] ------- [1:0 2:1 32 0] [270 0] 0 1
s 153.109439324 _1_ AGT  --- 533 tcp 1040 [0 0 0 0] ------- [1:0 2:1 32 0] [271 0] 0 1
s 153.111686333 _1_ AGT  --- 534 tcp 1040 [0 0 0 0] ------- [1:0 2:1 32 0] [272 0] 0 1
s 153.123798845 _1_ AGT  --- 536 tcp 1040 [0 0 0 0] ------- [1:0 2:1 32 0] [273 0] 0 1
s 153.135651357 _1_ AGT  --- 538 tcp 1040 [0 0 0 0] ------- [1:0 2:1 32 0] [274 0] 0 1
s 153.137878364 _1_ AGT  --- 539 tcp 1040 [0 0 0 0] ------- [1:0 2:1 32 0] [275 0] 0 1
s 153.149670874 _1_ AGT  --- 541 tcp 1040 [0 0 0 0] ------- [1:0 2:1 32 0] [276 0] 0 1
s 153.161883383 _1_ AGT  --- 543 tcp 1040 [0 0 0 0] ------- [1:0 2:1 32 0] [277 0] 0 1
s 153.183722895 _1_ AGT  --- 546 tcp 1040 [0 0 0 0] ------- [1:0 2:1 32 0] [278 0] 0 1
s 153.195515401 _1_ AGT  --- 548 tcp 1040 [0 0 0 0] ------- [1:0 2:1 32 0] [279 0] 0 1
s 153.197442404 _1_ AGT  --- 549 tcp 1040 [0 0 0 0] ------- [1:0 2:1 32 0] [280 0] 0 1
s 153.229328913 _1_ AGT  --- 553 tcp 1040 [0 0 0 0] ------- [1:0 2:1 32 0] [281 0] 0 1
s 153.251128415 _1_ AGT  --- 556 tcp 1040 [0 0 0 0] ------- [1:0 2:1 32 0] [282 0] 0 1
s 153.263060915 _1_ AGT  --- 558 tcp 1040 [0 0 0 0] ------- [1:0 2:1 32 0] [283 0] 0 1
s 153.265307914 _1_ AGT  --- 559 tcp 1040 [0 0 0 0] ------- [1:0 2:1 32 0] [284 0] 0 1
s 153.277180412 _1_ AGT  --- 561 tcp 1040 [0 0 0 0] ------- [1:0 2:1 32 0] [285 0] 0 1
s 153.309006904 _1_ AGT  --- 565 tcp 1040 [0 0 0 0] ------- [1:0 2:1 32 0] [286 0] 0 1
s 153.330806394 _1_ AGT  --- 568 tcp 1040 [0 0 0 0] ------- [1:0 2:1 32 0] [287 0] 0 1
s 153.342718886 _1_ AGT  --- 570 tcp 1040 [0 0 0 0] ------- [1:0 2:1 32 0] [288 0] 0 1
s 153.354671378 _1_ AGT  --- 572 tcp 1040 [0 0 0 0] ------- [1:0 2:1 32 0] [289 0] 0 1
s 153.366403868 _1_ AGT  --- 574 tcp 1040 [0 0 0 0] ------- [1:0 2:1 32 0] [290 0] 0 1
s 153.368330861 _1_ AGT  --- 575 tcp 1040 [0 0 0 0] ------- [1:0 2:1 32 0] [291 0] 0 1
s 153.380423350 _1_ AGT  --- 577 tcp 1040 [0 0 0 0] ------- [1:0 2:1 32 0] [292 0] 0 1
s 153.382250342 _1_ AGT  --- 578 tcp 1040 [0 0 0 0] ------- [1:0 2:1 32 0] [293 0] 0 1
s 153.384237334 _1_ AGT  --- 579 tcp 1040 [0 0 0 0] ------- [1:0 2:1 32 0] [294 0] 0 1
s 153.396289822 _1_ AGT  --- 581 tcp 1040 [0 0 0 0] ------- [1:0 2:1 32 0] [295 0] 0 1
s 153.398136813 _1_ AGT  --- 582 tcp 1040 [0 0 0 0] ------- [1:0 2:1 32 0] [296 0] 0 1
s 153.410409300 _1_ AGT  --- 584 tcp 1040 [0 0 0 0] ------- [1:0 2:1 32 0] [297 0] 0 1
s 153.442235763 _1_ AGT  --- 588 tcp 1040 [0 0 0 0] ------- [1:0 2:1 32 0] [298 0] 0 1
s 153.454108245 _1_ AGT  --- 590 tcp 1040 [0 0 0 0] ------- [1:0 2:1 32 0] [299 0] 0 1
s 153.466100726 _1_ AGT  --- 592 tcp 1040 [0 0 0 0] ------- [1:0 2:1 32 0] [300 0] 0 1
s 153.467967713 _1_ AGT  --- 593 tcp 1040 [0 0 0 0] ------- [1:0 2:1 32 0] [301 0] 0 1
s 153.499894165 _1_ AGT  --- 597 tcp 1040 [0 0 0 0] ------- [1:0 2:1 32 0] [302 0] 0 1
s 153.511626642 _1_ AGT  --- 599 tcp 1040 [0 0 0 0] ------- [1:0 2:1 32 0] [303 0] 0 1
s 153.533646101 _1_ AGT  --- 602 tcp 1040 [0 0 0 0] ------- [1:0 2:1 32 0] [304 0] 0 1
s 153.555685557 _1_ AGT  --- 605 tcp 1040 [0 0 0 0] ------- [1:0 2:1 32 0] [305 0] 0 1
s 153.557672538 _1_ AGT  --- 606 tcp 1040 [0 0 0 0] ------- [1:0 2:1 32 0] [306 0] 0 1
s 153.579531991 _1_ AGT  --- 609 tcp 1040 [0 0 0 0] ------- [1:0 2:1 32 0] [307 0] 0 1
s 153.591784461 _1_ AGT  --- 611 tcp 1040 [0 0 0 0] ------- [1:0 2:1 32 0] [308 0] 0 1
s 153.603936929 _1_ AGT  --- 613 tcp 1040 [0 0 0 0] ------- [1:0 2:1 32 0] [309 0] 0 1
s 153.605763908 _1_ AGT  --- 614 tcp 1040 [0 0 0 0] ------- [1:0 2:1 32 0] [310 0] 0 1
s 153.617656375 _1_ AGT  --- 616 tcp 1040 [0 0 0 0] ------- [1:0 2:1 32 0] [311 0] 0 1
s 153.629928842 _1_ AGT  --- 618 tcp 1040 [0 0 0 0] ------- [1:0 2:1 32 0] [312 0] 0 1
s 153.671682233 _1_ AGT  --- 623 tcp 1040 [0 0 0 0] ------- [1:0 2:1 32 0] [313 0] 0 1
s 153.693661669 _1_ AGT  --- 626 tcp 1040 [0 0 0 0] ------- [1:0 2:1 32 0] [314 0] 0 1
s 153.695648642 _1_ AGT  --- 627 tcp 1040 [0 0 0 0] ------- [1:0 2:1 32 0] [315 0] 0 1
s 153.707921101 _1_ AGT  --- 629 tcp 1040 [0 0 0 0] ------- [1:0 2:1 32 0] [316 0] 0 1
s 153.720113559 _1_ AGT  --- 631 tcp 1040 [0 0 0 0] ------- [1:0 2:1 32 0] [317 0] 0 1
s 153.732146016 _1_ AGT  --- 633 tcp 1040 [0 0 0 0] ------- [1:0 2:1 32 0] [318 0] 0 1
s 153.734272987 _1_ AGT  --- 634 tcp 1040 [0 0 0 0] ------- [1:0 2:1 32 0] [319 0] 0 1
s 153.746245443 _1_ AGT  --- 636 tcp 1040 [0 0 0 0] ------- [1:0 2:1 32 0] [320 0] 0 1
s 153.768244867 _1_ AGT  --- 639 tcp 1040 [0 0 0 0] ------- [1:0 2:1 32 0] [321 0] 0 1
s 153.770151836 _1_ AGT  --- 640 tcp 1040 [0 0 0 0] ------- [1:0 2:1 32 0] [322 0] 0 1
s 153.792191256 _1_ AGT  --- 643 tcp 1040 [0 0 0 0] ------- [1:0 2:1 32 0] [323 0] 0 1
s 153.814090673 _1_ AGT  --- 646 tcp 1040 [0 0 0 0] ------- [1:0 2:1 32 0] [324 0] 0 1
s 153.825883121 _1_ AGT  --- 648 tcp 1040 [0 0 0 0] ------- [1:0 2:1 32 0] [325 0] 0 1
s 153.838075569 _1_ AGT  --- 650 tcp 1040 [0 0 0 0] ------- [1:0 2:1 32 0] [326 0] 0 1
s 153.850328015 _1_ AGT  --- 652 tcp 1040 [0 0 0 0] ------- [1:0 2:1 32 0] [327 0] 0 1
s 153.862020460 _1_ AGT  --- 654 tcp 1040 [0 0 0 0] ------- [1:0 2:1 32 0] [328 0] 0 1
s 153.864207423 _1_ AGT  --- 655 tcp 1040 [0 0 0 0] ------- [1:0 2:1 32 0] [329 0] 0 1
s 153.866134386 _1_ AGT  --- 656 tcp 1040 [0 0 0 0] ------- [1:0 2:1 32 0] [330 0] 0 1
s 153.887773792 _1_ AGT  --- 659 tcp 1040 [0 0 0 0] ------- [1:0 2:1 32 0] [331 0] 0 1
s 153.899886234 _1_ AGT  --- 661 tcp 1040 [0 0 0 0] ------- [1:0 2:1 32 0] [332 0] 0 1
s 153.901853195 _1_ AGT  --- 662 tcp 1040 [0 0 0 0] ------- [1:0 2:1 32 0] [333 0] 0 1
s 153.923452595 _1_ AGT  --- 665 tcp 1040 [0 0 0 0] ------- [1:0 2:1 32 0] [334 0] 0 1
s 153.925459555 _1_ AGT  --- 666 tcp 1040 [0 0 0 0] ------- [1:0 2:1 32 0] [335 0] 0 1
s 153.927446514 _1_ AGT  --- 667 tcp 1040 [0 0 0 0] ------- [1:0 2:1 32 0] [336 0] 0 1
s 153.939338952 _1_ AGT  --- 669 tcp 1040 [0 0 0 0] ------- [1:0 2:1 32 0] [337 0] 0 1
s 153.941485911 _1_ AGT  --- 670 tcp 1040 [0 0 0 0] ------- [1:0 2:1 32 0] [338 0] 0 1
s 153.953358348 _1_ AGT  --- 672 tcp 1040 [0 0 0 0] ------- [1:0 2:1 32 0] [339 0] 0 1
s 153.985224696 _1_ AGT  --- 676 tcp 1040 [0 0 0 0] ------- [1:0 2:1 32 0] [340 0] 0 1
s 154.007224084 _1_ AGT  --- 679 tcp 1040 [0 0 0 0] ------- [1:0 2:1 32 0] [341 0] 0 1
s 154.019316515 _1_ AGT  --- 681 tcp 1040 [0 0 0 0] ------- [1:0 2:1 32 0] [342 0] 0 1
s 154.031528945 _1_ AGT  --- 683 tcp 1040 [0 0 0 0] ------- [1:0 2:1 32 0] [343 0] 0 1
s 154.063355277 _1_ AGT  --- 687 tcp 1040 [0 0 0 0] ------- [1:0 2:1 32 0] [344 0] 0 1
s 154.075347703 _1_ AGT  --- 689 tcp 1040 [0 0 0 0] ------- [1:0 2:1 32 0] [345 0] 0 1