r 150.033665463 _2_ AGT  --- 6 tcp 40 [13a 2 1 800] ------- [1:0 2:1 30 2] [0 0] 1 1
r 150.035711862 _1_ AGT  --- 7 ack 40 [13a 1 2 800] ------- [2:1 1:0 30 1] [0 0] 1 1
r 150.045658261 _2_ AGT  --- 8 tcp 1040 [13a 2 1 800] ------- [1:0 2:1 30 2] [1 0] 1 1
r 150.055625458 _2_ AGT  --- 9 tcp 1040 [13a 2 1 800] ------- [1:0 2:1 30 2] [2 0] 1 1
r 150.061047125 _1_ AGT  --- 10 ack 40 [13a 1 2 800] ------- [2:1 1:0 30 1] [1 0] 1 1
r 150.063074322 _1_ AGT  --- 11 ack 40 [13a 1 2 800] ------- [2:1 1:0 30 1] [2 0] 1 1
r 150.073100720 _2_ AGT  --- 12 tcp 1040 [13a 2 1 800] ------- [1:0 2:1 30 2] [3 0] 1 1
r 150.074947117 _1_ AGT  --- 16 ack 40 [13a 1 2 800] ------- [2:1 1:0 30 1] [3 0] 1 1
r 150.093526869 _2_ AGT  --- 13 tcp 1040 [13a 2 1 800] ------- [1:0 2:1 30 2] [4 0] 1 1
r 150.095473265 _1_ AGT  --- 19 ack 40 [13a 1 2 800] ------- [2:1 1:0 30 1] [4 0] 1 1
r 150.106298187 _2_ AGT  --- 14 tcp 1040 [13a 2 1 800] ------- [1:0 2:1 30 2] [5 0] 1 1
r 150.121666842 _2_ AGT  --- 15 tcp 1040 [13a 2 1 800] ------- [1:0 2:1 30 2] [6 0] 1 1
r 150.123633237 _1_ AGT  --- 22 ack 40 [13a 1 2 800] ------- [2:1 1:0 30 1] [5 0] 1 1
r 150.125460429 _1_ AGT  --- 23 ack 40 [13a 1 2 800] ------- [2:1 1:0 30 1] [6 0] 1 1
r 150.135366824 _2_ AGT  --- 17 tcp 1040 [13a 2 1 800] ------- [1:0 2:1 30 2] [7 0] 1 1
r 150.145234016 _2_ AGT  --- 18 tcp 1040 [13a 2 1 800] ------- [1:0 2:1 30 2] [8 0] 1 1
r 150.147100410 _1_ AGT  --- 28 ack 40 [13a 1 2 800] ------- [2:1 1:0 30 1] [7 0] 1 1
r 150.157266803 _2_ AGT  --- 20 tcp 1040 [13a 2 1 800] ------- [1:0 2:1 30 2] [9 0] 1 1
r 150.159293196 _1_ AGT  --- 29 ack 40 [13a 1 2 800] ------- [2:1 1:0 30 1] [8 0] 1 1
r 150.169499589 _2_ AGT  --- 21 tcp 1040 [13a 2 1 800] ------- [1:0 2:1 30 2] [10 0] 1 1
r 150.171465982 _1_ AGT  --- 32 ack 40 [13a 1 2 800] ------- [2:1 1:0 30 1] [9 0] 1 1
r 150.175541973 _1_ AGT  --- 35 ack 40 [13a 1 2 800] ------- [2:1 1:0 30 1] [10 0] 1 1
r 150.185588365 _2_ AGT  --- 24 tcp 1040 [13a 2 1 800] ------- [1:0 2:1 30 2] [11 0] 1 1
r 150.189653153 _1_ AGT  --- 40 ack 40 [13a 1 2 800] ------- [2:1 1:0 30 1] [11 0] 1 1
r 150.199659544 _2_ AGT  --- 25 tcp 1040 [13a 2 1 800] ------- [1:0 2:1 30 2] [12 0] 1 1
r 150.201625935 _1_ AGT  --- 43 ack 40 [13a 1 2 800] ------- [2:1 1:0 30 1] [12 0] 1 1
r 150.211912326 _2_ AGT  --- 26 tcp 1040 [13a 2 1 800] ------- [1:0 2:1 30 2] [13 0] 1 1
r 150.214158717 _1_ AGT  --- 46 ack 40 [13a 1 2 800] ------- [2:1 1:0 30 1] [13 0] 1 1
r 150.224145107 _2_ AGT  --- 27 tcp 1040 [13a 2 1 800] ------- [1:0 2:1 30 2] [14 0] 1 1
r 150.226171497 _1_ AGT  --- 49 ack 40 [13a 1 2 800] ------- [2:1 1:0 30 1] [14 0] 1 1
r 150.236297887 _2_ AGT  --- 30 tcp 1040 [13a 2 1 800] ------- [1:0 2:1 30 2] [15 0] 1 1
r 150.238144276 _1_ AGT  --- 52 ack 40 [13a 1 2 800] ------- [2:1 1:0 30 1] [15 0] 1 1
r 150.248130665 _2_ AGT  --- 31 tcp 1040 [13a 2 1 800] ------- [1:0 2:1 30 2] [16 0] 1 1
r 150.250017054 _1_ AGT  --- 55 ack 40 [13a 1 2 800] ------- [2:1 1:0 30 1] [16 0] 1 1
r 150.260083443 _2_ AGT  --- 33 tcp 1040 [13a 2 1 800] ------- [1:0 2:1 30 2] [17 0] 1 1
r 150.262149831 _1_ AGT  --- 58 ack 40 [13a 1 2 800] ------- [2:1 1:0 30 1] [17 0] 1 1
r 150.272336219 _2_ AGT  --- 34 tcp 1040 [13a 2 1 800] ------- [1:0 2:1 30 2] [18 0] 1 1
r 150.274182607 _1_ AGT  --- 61 ack 40 [13a 1 2 800] ------- [2:1 1:0 30 1] [18 0] 1 1
r 150.284388994 _2_ AGT  --- 36 tcp 1040 [13a 2 1 800] ------- [1:0 2:1 30 2] [19 0] 1 1
r 150.286415381 _1_ AGT  --- 64 ack 40 [13a 1 2 800] ------- [2:1 1:0 30 1] [19 0] 1 1
r 150.296661768 _2_ AGT  --- 37 tcp 1040 [13a 2 1 800] ------- [1:0 2:1 30 2] [20 0] 1 1
r 150.298508155 _1_ AGT  --- 66 ack 40 [13a 1 2 800] ------- [2:1 1:0 30 1] [20 0] 1 1
r 150.308774541 _2_ AGT  --- 38 tcp 1040 [13a 2 1 800] ------- [1:0 2:1 30 2] [21 0] 1 1
r 150.319121722 _2_ AGT  --- 39 tcp 1040 [13a 2 1 800] ------- [1:0 2:1 30 2] [22 0] 1 1
r 150.320968108 _1_ AGT  --- 68 ack 40 [13a 1 2 800] ------- [2:1 1:0 30 1] [21 0] 1 1
r 150.330834493 _2_ AGT  --- 41 tcp 1040 [13a 2 1 800] ------- [1:0 2:1 30 2] [23 0] 1 1
r 150.332900878 _1_ AGT  --- 69 ack 40 [13a 1 2 800] ------- [2:1 1:0 30 1] [22 0] 1 1
r 150.334808058 _1_ AGT  --- 71 ack 40 [13a 1 2 800] ------- [2:1 1:0 30 1] [23 0] 1 1
r 150.344654443 _2_ AGT  --- 42 tcp 1040 [13a 2 1 800] ------- [1:0 2:1 30 2] [24 0] 1 1
r 150.354721622 _2_ AGT  --- 44 tcp 1040 [13a 2 1 800] ------- [1:0 2:1 30 2] [25 0] 1 1
r 150.356648006 _1_ AGT  --- 74 ack 40 [13a 1 2 800] ------- [2:1 1:0 30 1] [24 0] 1 1
r 150.358555184 _1_ AGT  --- 75 ack 40 [13a 1 2 800] ------- [2:1 1:0 30 1] [25 0] 1 1
r 150.368461567 _2_ AGT  --- 45 tcp 1040 [13a 2 1 800] ------- [1:0 2:1 30 2] [26 0] 1 1
r 150.370447951 _1_ AGT  --- 78 ack 40 [13a 1 2 800] ------- [2:1 1:0 30 1] [26 0] 1 1
r 150.380574334 _2_ AGT  --- 47 tcp 1040 [13a 2 1 800] ------- [1:0 2:1 30 2] [27 0] 1 1
r 150.382560716 _1_ AGT  --- 80 ack 40 [13a 1 2 800] ------- [2:1 1:0 30 1] [27 0] 1 1
r 150.392507099 _2_ AGT  --- 48 tcp 1040 [13a 2 1 800] ------- [1:0 2:1 30 2] [28 0] 1 1
r 150.394633481 _1_ AGT  --- 82 ack 40 [13a 1 2 800] ------- [2:1 1:0 30 1] [28 0] 1 1
r 150.404699863 _2_ AGT  --- 50 tcp 1040 [13a 2 1 800] ------- [1:0 2:1 30 2] [29 0] 1 1
r 150.414607038 _2_ AGT  --- 51 tcp 1040 [13a 2 1 800] ------- [1:0 2:1 30 2] [30 0] 1 1
r 150.424634213 _2_ AGT  --- 53 tcp 1040 [13a 2 1 800] ------- [1:0 2:1 30 2] [31 0] 1 1
r 150.426680593 _1_ AGT  --- 84 ack 40 [13a 1 2 800] ------- [2:1 1:0 30 1] [29 0] 1 1
r 150.436626974 _2_ AGT  --- 54 tcp 1040 [13a 2 1 800] ------- [1:0 2:1 30 2] [32 0] 1 1
r 150.446454147 _2_ AGT  --- 56 tcp 1040 [13a 2 1 800] ------- [1:0 2:1 30 2] [33 0] 1 1
r 150.448420526 _1_ AGT  --- 85 ack 40 [13a 1 2 800] ------- [2:1 1:0 30 1] [30 0] 1 1
r 150.458686906 _2_ AGT  --- 57 tcp 1040 [13a 2 1 800] ------- [1:0 2:1 30 2] [34 0] 1 1
r 150.460553285 _1_ AGT  --- 86 ack 40 [13a 1 2 800] ------- [2:1 1:0 30 1] [31 0] 1 1
r 150.470699664 _2_ AGT  --- 59 tcp 1040 [13a 2 1 800] ------- [1:0 2:1 30 2] [35 0] 1 1
r 150.480586835 _2_ AGT  --- 60 tcp 1040 [13a 2 1 800] ------- [1:0 2:1 30 2] [36 0] 1 1
r 150.482493213 _1_ AGT  --- 88 ack 40 [13a 1 2 800] ------- [2:1 1:0 30 1] [32 0] 1 1
r 150.492339590 _2_ AGT  --- 62 tcp 1040 [13a 2 1 800] ------- [1:0 2:1 30 2] [37 0] 1 1
r 150.502286760 _2_ AGT  --- 63 tcp 1040 [13a 2 1 800] ------- [1:0 2:1 30 2] [38 0] 1 1
r 150.512173930 _2_ AGT  --- 65 tcp 1040 [13a 2 1 800] ------- [1:0 2:1 30 2] [39 0] 1 1
r 150.514120306 _1_ AGT  --- 89 ack 40 [13a 1 2 800] ------- [2:1 1:0 30 1] [33 0] 1 1
r 150.516047474 _1_ AGT  --- 91 ack 40 [13a 1 2 800] ------- [2:1 1:0 30 1] [34 0] 1 1
r 150.525953851 _2_ AGT  --- 67 tcp 1040 [13a 2 1 800] ------- [1:0 2:1 30 2] [40 0] 1 1
r 150.536141018 _2_ AGT  --- 70 tcp 1040 [13a 2 1 800] ------- [1:0 2:1 30 2] [41 0] 1 1
r 150.538007394 _1_ AGT  --- 93 ack 40 [13a 1 2 800] ------- [2:1 1:0 30 1] [35 0] 1 1
r 150.540014561 _1_ AGT  --- 94 ack 40 [13a 1 2 800] ------- [2:1 1:0 30 1] [36 0] 1 1
r 150.550180936 _2_ AGT  --- 72 tcp 1040 [13a 2 1 800] ------- [1:0 2:1 30 2] [42 0] 1 1
r 150.552167311 _1_ AGT  --- 96 ack 40 [13a 1 2 800] ------- [2:1 1:0 30 1] [37 0] 1 1
r 150.554014477 _1_ AGT  --- 97 ack 40 [13a 1 2 800] ------- [2:1 1:0 30 1] [38 0] 1 1
r 150.556001643 _1_ AGT  --- 98 ack 40 [13a 1 2 800] ------- [2:1 1:0 30 1] [39 0] 1 1
r 150.566008017 _2_ AGT  --- 73 tcp 1040 [13a 2 1 800] ------- [1:0 2:1 30 2] [43 0] 1 1
r 150.568194391 _1_ AGT  --- 101 ack 40 [13a 1 2 800] ------- [2:1 1:0 30 1] [40 0] 1 1
r 150.578120765 _2_ AGT  --- 76 tcp 1040 [13a 2 1 800] ------- [1:0 2:1 30 2] [44 0] 1 1
r 150.580127138 _1_ AGT  --- 102 ack 40 [13a 1 2 800] ------- [2:1 1:0 30 1] [41 0] 1 1
r 150.590013511 _2_ AGT  --- 77 tcp 1040 [13a 2 1 800] ------- [1:0 2:1 30 2] [45 0] 1 1
r 150.591959884 _1_ AGT  --- 105 ack 40 [13a 1 2 800] ------- [2:1 1:0 30 1] [42 0] 1 1
r 150.594067048 _1_ AGT  --- 109 ack 40 [13a 1 2 800] ------- [2:1 1:0 30 1] [43 0] 1 1
r 150.603953420 _2_ AGT  --- 79 tcp 1040 [13a 2 1 800] ------- [1:0 2:1 30 2] [46 0] 1 1
r 150.613780583 _2_ AGT  --- 81 tcp 1040 [13a 2 1 800] ------- [1:0 2:1 30 2] [47 0] 1 1
r 150.623867746 _2_ AGT  --- 83 tcp 1040 [13a 2 1 800] ------- [1:0 2:1 30 2] [48 0] 1 1
r 150.625954117 _1_ AGT  --- 111 ack 40 [13a 1 2 800] ------- [2:1 1:0 30 1] [44 0] 1 1
r 150.627841278 _1_ AGT  --- 113 ack 40 [13a 1 2 800] ------- [2:1 1:0 30 1] [45 0] 1 1
r 150.637947649 _2_ AGT  --- 87 tcp 1040 [13a 2 1 800] ------- [1:0 2:1 30 2] [49 0] 1 1
r 150.647854810 _2_ AGT  --- 90 tcp 1040 [13a 2 1 800] ------- [1:0 2:1 30 2] [50 0] 1 1
r 150.649701180 _1_ AGT  --- 116 ack 40 [13a 1 2 800] ------- [2:1 1:0 30 1] [46 0] 1 1
r 150.651568340 _1_ AGT  --- 117 ack 40 [13a 1 2 800] ------- [2:1 1:0 30 1] [47 0] 1 1
r 150.661934710 _2_ AGT  --- 92 tcp 1040 [13a 2 1 800] ------- [1:0 2:1 30 2] [51 0] 1 1
r 150.663781080 _1_ AGT  --- 118 ack 40 [13a 1 2 800] ------- [2:1 1:0 30 1] [48 0] 1 1
r 150.665708239 _1_ AGT  --- 121 ack 40 [13a 1 2 800] ------- [2:1 1:0 30 1] [49 0] 1 1
r 150.675614608 _2_ AGT  --- 95 tcp 1040 [13a 2 1 800] ------- [1:0 2:1 30 2] [52 0] 1 1
r 150.677680977 _1_ AGT  --- 122 ack 40 [13a 1 2 800] ------- [2:1 1:0 30 1] [50 0] 1 1
r 150.679508135 _1_ AGT  --- 125 ack 40 [13a 1 2 800] ------- [2:1 1:0 30 1] [51 0] 1 1
r 150.681615293 _1_ AGT  --- 128 ack 40 [13a 1 2 800] ------- [2:1 1:0 30 1] [52 0] 1 1
r 150.691461662 _2_ AGT  --- 99 tcp 1040 [13a 2 1 800] ------- [1:0 2:1 30 2] [53 0] 1 1
r 150.693528030 _1_ AGT  --- 132 ack 40 [13a 1 2 800] ------- [2:1 1:0 30 1] [53 0] 1 1
r 150.703674398 _2_ AGT  --- 100 tcp 1040 [13a 2 1 800] ------- [1:0 2:1 30 2] [54 0] 1 1
r 150.705680765 _1_ AGT  --- 134 ack 40 [13a 1 2 800] ------- [2:1 1:0 30 1] [54 0] 1 1
r 150.715927133 _2_ AGT  --- 103 tcp 1040 [13a 2 1 800] ------- [1:0 2:1 30 2] [55 0] 1 1
r 150.725914289 _2_ AGT  --- 104 tcp 1040 [13a 2 1 800] ------- [1:0 2:1 30 2] [56 0] 1 1
r 150.727920655 _1_ AGT  --- 136 ack 40 [13a 1 2 800] ------- [2:1 1:0 30 1] [55 0] 1 1
r 150.737827021 _2_ AGT  --- 106 tcp 1040 [13a 2 1 800] ------- [1:0 2:1 30 2] [57 0] 1 1
r 150.740053387 _1_ AGT  --- 137 ack 40 [13a 1 2 800] ------- [2:1 1:0 30 1] [56 0] 1 1
r 150.749899753 _2_ AGT  --- 107 tcp 1040 [13a 2 1 800] ------- [1:0 2:1 30 2] [58 0] 1 1
r 150.751886118 _1_ AGT  --- 139 ack 40 [13a 1 2 800] ------- [2:1 1:0 30 1] [57 0] 1 1
r 150.762112484 _2_ AGT  --- 108 tcp 1040 [13a 2 1 800] ------- [1:0 2:1 30 2] [59 0] 1 1
r 150.772039637 _2_ AGT  --- 110 tcp 1040 [13a 2 1 800] ------- [1:0 2:1 30 2] [60 0] 1 1
r 150.773926001 _1_ AGT  --- 141 ack 40 [13a 1 2 800] ------- [2:1 1:0 30 1] [58 0] 1 1
r 150.775933153 _1_ AGT  --- 143 ack 40 [13a 1 2 800] ------- [2:1 1:0 30 1] [59 0] 1 1
r 150.785879518 _2_ AGT  --- 112 tcp 1040 [13a 2 1 800] ------- [1:0 2:1 30 2] [61 0] 1 1
r 150.787845881 _1_ AGT  --- 144 ack 40 [13a 1 2 800] ------- [2:1 1:0 30 1] [60 0] 1 1
r 150.797732245 _2_ AGT  --- 114 tcp 1040 [13a 2 1 800] ------- [1:0 2:1 30 2] [62 0] 1 1
r 150.799678608 _1_ AGT  --- 147 ack 40 [13a 1 2 800] ------- [2:1 1:0 30 1] [61 0] 1 1
r 150.801605759 _1_ AGT  --- 149 ack 40 [13a 1 2 800] ------- [2:1 1:0 30 1] [62 0] 1 1
r 150.811612122 _2_ AGT  --- 115 tcp 1040 [13a 2 1 800] ------- [1:0 2:1 30 2] [63 0] 1 1
r 150.813578484 _1_ AGT  --- 152 ack 40 [13a 1 2 800] ------- [2:1 1:0 30 1] [63 0] 1 1
r 150.823804846 _2_ AGT  --- 119 tcp 1040 [13a 2 1 800] ------- [1:0 2:1 30 2] [64 0] 1 1
r 150.834071996 _2_ AGT  --- 120 tcp 1040 [13a 2 1 800] ------- [1:0 2:1 30 2] [65 0] 1 1
r 150.843899144 _2_ AGT  --- 123 tcp 1040 [13a 2 1 800] ------- [1:0 2:1 30 2] [66 0] 1 1
r 150.845745505 _1_ AGT  --- 154 ack 40 [13a 1 2 800] ------- [2:1 1:0 30 1] [64 0] 1 1
r 150.847772653 _1_ AGT  --- 155 ack 40 [13a 1 2 800] ------- [2:1 1:0 30 1] [65 0] 1 1
r 150.857659014 _2_ AGT  --- 124 tcp 1040 [13a 2 1 800] ------- [1:0 2:1 30 2] [67 0] 1 1
r 150.859785374 _1_ AGT  --- 156 ack 40 [13a 1 2 800] ------- [2:1 1:0 30 1] [66 0] 1 1
r 150.869671734 _2_ AGT  --- 126 tcp 1040 [13a 2 1 800] ------- [1:0 2:1 30 2] [68 0] 1 1
r 150.879578881 _2_ AGT  --- 127 tcp 1040 [13a 2 1 800] ------- [1:0 2:1 30 2] [69 0] 1 1
r 150.889686026 _2_ AGT  --- 129 tcp 1040 [13a 2 1 800] ------- [1:0 2:1 30 2] [70 0] 1 1
r 150.891692385 _1_ AGT  --- 159 ack 40 [13a 1 2 800] ------- [2:1 1:0 30 1] [67 0] 1 1
r 150.901718744 _2_ AGT  --- 130 tcp 1040 [13a 2 1 800] ------- [1:0 2:1 30 2] [71 0] 1 1
r 150.903645102 _1_ AGT  --- 161 ack 40 [13a 1 2 800] ------- [2:1 1:0 30 1] [68 0] 1 1
r 150.913691460 _2_ AGT  --- 131 tcp 1040 [13a 2 1 800] ------- [1:0 2:1 30 2] [72 0] 1 1
r 150.923598604 _2_ AGT  --- 133 tcp 1040 [13a 2 1 800] ------- [1:0 2:1 30 2] [73 0] 1 1
r 150.925464961 _1_ AGT  --- 162 ack 40 [13a 1 2 800] ------- [2:1 1:0 30 1] [69 0] 1 1
r 150.935331318 _2_ AGT  --- 135 tcp 1040 [13a 2 1 800] ------- [1:0 2:1 30 2] [74 0] 1 1
r 150.937377675 _1_ AGT  --- 163 ack 40 [13a 1 2 800] ------- [2:1 1:0 30 1] [70 0] 1 1
r 150.947224032 _2_ AGT  --- 138 tcp 1040 [13a 2 1 800] ------- [1:0 2:1 30 2] [75 0] 1 1
r 150.949610388 _1_ AGT  --- 165 ack 40 [13a 1 2 800] ------- [2:1 1:0 30 1] [71 0] 1 1
r 150.959476744 _2_ AGT  --- 140 tcp 1040 [13a 2 1 800] ------- [1:0 2:1 30 2] [76 0] 1 1
r 150.961403100 _1_ AGT  --- 167 ack 40 [13a 1 2 800] ------- [2:1 1:0 30 1] [72 0] 1 1
r 150.971349455 _2_ AGT  --- 142 tcp 1040 [13a 2 1 800] ------- [1:0 2:1 30 2] [77 0] 1 1
r 150.973395810 _1_ AGT  --- 168 ack 40 [13a 1 2 800] ------- [2:1 1:0 30 1] [73 0] 1 1
r 150.983302165 _2_ AGT  --- 145 tcp 1040 [13a 2 1 800] ------- [1:0 2:1 30 2] [78 0] 1 1
r 150.985228519 _1_ AGT  --- 170 ack 40 [13a 1 2 800] ------- [2:1 1:0 30 1] [74 0] 1 1
r 150.995394874 _2_ AGT  --- 146 tcp 1040 [13a 2 1 800] ------- [1:0 2:1 30 2] [79 0] 1 1
r 150.997501228 _1_ AGT  --- 172 ack 40 [13a 1 2 800] ------- [2:1 1:0 30 1] [75 0] 1 1
r 150.999568366 _1_ AGT  --- 174 ack 40 [13a 1 2 800] ------- [2:1 1:0 30 1] [76 0] 1 1
r 151.009454720 _2_ AGT  --- 148 tcp 1040 [13a 2 1 800] ------- [1:0 2:1 30 2] [80 0] 1 1
r 151.019561858 _2_ AGT  --- 150 tcp 1040 [13a 2 1 800] ------- [1:0 2:1 30 2] [81 0] 1 1
r 151.021568210 _1_ AGT  --- 176 ack 40 [13a 1 2 800] ------- [2:1 1:0 30 1] [77 0] 1 1
r 151.023515347 _1_ AGT  --- 178 ack 40 [13a 1 2 800] ------- [2:1 1:0 30 1] [78 0] 1 1
r 151.025402484 _1_ AGT  --- 180 ack 40 [13a 1 2 800] ------- [2:1 1:0 30 1] [79 0] 1 1
r 151.035488837 _2_ AGT  --- 151 tcp 1040 [13a 2 1 800] ------- [1:0 2:1 30 2] [82 0] 1 1
r 151.037355189 _1_ AGT  --- 183 ack 40 [13a 1 2 800] ------- [2:1 1:0 30 1] [80 0] 1 1
r 151.047241541 _2_ AGT  --- 153 tcp 1040 [13a 2 1 800] ------- [1:0 2:1 30 2] [83 0] 1 1
r 151.049227892 _1_ AGT  --- 184 ack 40 [13a 1 2 800] ------- [2:1 1:0 30 1] [81 0] 1 1
r 151.059314244 _2_ AGT  --- 157 tcp 1040 [13a 2 1 800] ------- [1:0 2:1 30 2] [84 0] 1 1
r 151.069261378 _2_ AGT  --- 158 tcp 1040 [13a 2 1 800] ------- [1:0 2:1 30 2] [85 0] 1 1
r 151.071187729 _1_ AGT  --- 188 ack 40 [13a 1 2 800] ------- [2:1 1:0 30 1] [82 0] 1 1
r 151.081094079 _2_ AGT  --- 160 tcp 1040 [13a 2 1 800] ------- [1:0 2:1 30 2] [86 0] 1 1
r 151.083100429 _1_ AGT  --- 190 ack 40 [13a 1 2 800] ------- [2:1 1:0 30 1] [83 0] 1 1
r 151.093186779 _2_ AGT  --- 164 tcp 1040 [13a 2 1 800] ------- [1:0 2:1 30 2] [87 0] 1 1
r 151.095293128 _1_ AGT  --- 192 ack 40 [13a 1 2 800] ------- [2:1 1:0 30 1] [84 0] 1 1
r 151.097220260 _1_ AGT  --- 193 ack 40 [13a 1 2 800] ------- [2:1 1:0 30 1] [85 0] 1 1
r 151.107086610 _2_ AGT  --- 166 tcp 1040 [13a 2 1 800] ------- [1:0 2:1 30 2] [88 0] 1 1
r 151.116953741 _2_ AGT  --- 169 tcp 1040 [13a 2 1 800] ------- [1:0 2:1 30 2] [89 0] 1 1
r 151.126900872 _2_ AGT  --- 171 tcp 1040 [13a 2 1 800] ------- [1:0 2:1 30 2] [90 0] 1 1
r 151.136868003 _2_ AGT  --- 173 tcp 1040 [13a 2 1 800] ------- [1:0 2:1 30 2] [91 0] 1 1
r 151.138954350 _1_ AGT  --- 195 ack 40 [13a 1 2 800] ------- [2:1 1:0 30 1] [86 0] 1 1
r 151.149140697 _2_ AGT  --- 175 tcp 1040 [13a 2 1 800] ------- [1:0 2:1 30 2] [92 0] 1 1
r 151.150987044 _1_ AGT  --- 197 ack 40 [13a 1 2 800] ------- [2:1 1:0 30 1] [87 0] 1 1
r 151.152934173 _1_ AGT  --- 200 ack 40 [13a 1 2 800] ------- [2:1 1:0 30 1] [88 0] 1 1
r 151.154981302 _1_ AGT  --- 201 ack 40 [13a 1 2 800] ------- [2:1 1:0 30 1] [89 0] 1 1
r 151.164867648 _2_ AGT  --- 177 tcp 1040 [13a 2 1 800] ------- [1:0 2:1 30 2] [93 0] 1 1
r 151.174994776 _2_ AGT  --- 179 tcp 1040 [13a 2 1 800] ------- [1:0 2:1 30 2] [94 0] 1 1
r 151.176941122 _1_ AGT  --- 202 ack 40 [13a 1 2 800] ------- [2:1 1:0 30 1] [90 0] 1 1
r 151.178868249 _1_ AGT  --- 203 ack 40 [13a 1 2 800] ------- [2:1 1:0 30 1] [91 0] 1 1
r 151.180715376 _1_ AGT  --- 205 ack 40 [13a 1 2 800] ------- [2:1 1:0 30 1] [92 0] 1 1
r 151.190661722 _2_ AGT  --- 181 tcp 1040 [13a 2 1 800] ------- [1:0 2:1 30 2] [95 0] 1 1
r 151.192588067 _1_ AGT  --- 209 ack 40 [13a 1 2 800] ------- [2:1 1:0 30 1] [93 0] 1 1
r 151.202794411 _2_ AGT  --- 182 tcp 1040 [13a 2 1 800] ------- [1:0 2:1 30 2] [96 0] 1 1
r 151.204680756 _1_ AGT  --- 210 ack 40 [13a 1 2 800] ------- [2:1 1:0 30 1] [94 0] 1 1
r 151.214687100 _2_ AGT  --- 185 tcp 1040 [13a 2 1 800] ------- [1:0 2:1 30 2] [97 0] 1 1
r 151.224614225 _2_ AGT  --- 186 tcp 1040 [13a 2 1 800] ------- [1:0 2:1 30 2] [98 0] 1 1
r 151.226480568 _1_ AGT  --- 214 ack 40 [13a 1 2 800] ------- [2:1 1:0 30 1] [95 0] 1 1
r 151.228627692 _1_ AGT  --- 216 ack 40 [13a 1 2 800] ------- [2:1 1:0 30 1] [96 0] 1 1
r 151.238594035 _2_ AGT  --- 187 tcp 1040 [13a 2 1 800] ------- [1:0 2:1 30 2] [99 0] 1 1
r 151.240620378 _1_ AGT  --- 218 ack 40 [13a 1 2 800] ------- [2:1 1:0 30 1] [97 0] 1 1
r 151.250466720 _2_ AGT  --- 189 tcp 1040 [13a 2 1 800] ------- [1:0 2:1 30 2] [100 0] 1 1
r 151.252373062 _1_ AGT  --- 219 ack 40 [13a 1 2 800] ------- [2:1 1:0 30 1] [98 0] 1 1
r 151.262239404 _2_ AGT  --- 191 tcp 1040 [13a 2 1 800] ------- [1:0 2:1 30 2] [101 0] 1 1
r 151.272086526 _2_ AGT  --- 194 tcp 1040 [13a 2 1 800] ------- [1:0 2:1 30 2] [102 0] 1 1
r 151.273952868 _1_ AGT  --- 222 ack 40 [13a 1 2 800] ------- [2:1 1:0 30 1] [99 0] 1 1
r 151.284079208 _2_ AGT  --- 196 tcp 1040 [13a 2 1 800] ------- [1:0 2:1 30 2] [103 0] 1 1
r 151.285925549 _1_ AGT  --- 224 ack 40 [13a 1 2 800] ------- [2:1 1:0 30 1] [100 0] 1 1
r 151.296271889 _2_ AGT  --- 198 tcp 1040 [13a 2 1 800] ------- [1:0 2:1 30 2] [104 0] 1 1
r 151.298178229 _1_ AGT  --- 226 ack 40 [13a 1 2 800] ------- [2:1 1:0 30 1] [101 0] 1 1
r 151.300325349 _1_ AGT  --- 227 ack 40 [13a 1 2 800] ------- [2:1 1:0 30 1] [102 0] 1 1
r 151.310251689 _2_ AGT  --- 199 tcp 1040 [13a 2 1 800] ------- [1:0 2:1 30 2] [105 0] 1 1
r 151.312178028 _1_ AGT  --- 229 ack 40 [13a 1 2 800] ------- [2:1 1:0 30 1] [103 0] 1 1
r 151.314105147 _1_ AGT  --- 231 ack 40 [13a 1 2 800] ------- [2:1 1:0 30 1] [104 0] 1 1
r 151.315972266 _1_ AGT  --- 234 ack 40 [13a 1 2 800] ------- [2:1 1:0 30 1] [105 0] 1 1
r 151.325898605 _2_ AGT  --- 204 tcp 1040 [13a 2 1 800] ------- [1:0 2:1 30 2] [106 0] 1 1
r 151.336125723 _2_ AGT  --- 206 tcp 1040 [13a 2 1 800] ------- [1:0 2:1 30 2] [107 0] 1 1
r 151.338092061 _1_ AGT  --- 238 ack 40 [13a 1 2 800] ------- [2:1 1:0 30 1] [106 0] 1 1
r 151.348238399 _2_ AGT  --- 207 tcp 1040 [13a 2 1 800] ------- [1:0 2:1 30 2] [108 0] 1 1
r 151.350344737 _1_ AGT  --- 239 ack 40 [13a 1 2 800] ------- [2:1 1:0 30 1] [107 0] 1 1
r 151.360411074 _2_ AGT  --- 208 tcp 1040 [13a 2 1 800] ------- [1:0 2:1 30 2] [109 0] 1 1
r 151.362257411 _1_ AGT  --- 241 ack 40 [13a 1 2 800] ------- [2:1 1:0 30 1] [108 0] 1 1
r 151.364404527 _1_ AGT  --- 243 ack 40 [13a 1 2 800] ------- [2:1 1:0 30 1] [109 0] 1 1
r 151.374490864 _2_ AGT  --- 211 tcp 1040 [13a 2 1 800] ------- [1:0 2:1 30 2] [110 0] 1 1
r 151.376557200 _1_ AGT  --- 246 ack 40 [13a 1 2 800] ------- [2:1 1:0 30 1] [110 0] 1 1
r 151.386623536 _2_ AGT  --- 212 tcp 1040 [13a 2 1 800] ------- [1:0 2:1 30 2] [111 0] 1 1
r 151.388549872 _1_ AGT  --- 248 ack 40 [13a 1 2 800] ------- [2:1 1:0 30 1] [111 0] 1 1
r 151.398876208 _2_ AGT  --- 213 tcp 1040 [13a 2 1 800] ------- [1:0 2:1 30 2] [112 0] 1 1
r 151.400802543 _1_ AGT  --- 250 ack 40 [13a 1 2 800] ------- [2:1 1:0 30 1] [112 0] 1 1
r 151.410828878 _2_ AGT  --- 215 tcp 1040 [13a 2 1 800] ------- [1:0 2:1 30 2] [113 0] 1 1
r 151.412795212 _1_ AGT  --- 252 ack 40 [13a 1 2 800] ------- [2:1 1:0 30 1] [113 0] 1 1
r 151.422821547 _2_ AGT  --- 217 tcp 1040 [13a 2 1 800] ------- [1:0 2:1 30 2] [114 0] 1 1
r 151.424807881 _1_ AGT  --- 254 ack 40 [13a 1 2 800] ------- [2:1 1:0 30 1] [114 0] 1 1
r 151.434734215 _2_ AGT  --- 220 tcp 1040 [13a 2 1 800] ------- [1:0 2:1 30 2] [115 0] 1 1
r 151.436700548 _1_ AGT  --- 256 ack 40 [13a 1 2 800] ------- [2:1 1:0 30 1] [115 0] 1 1
r 151.446866882 _2_ AGT  --- 221 tcp 1040 [13a 2 1 800] ------- [1:0 2:1 30 2] [116 0] 1 1
r 151.457253992 _2_ AGT  --- 223 tcp 1040 [13a 2 1 800] ------- [1:0 2:1 30 2] [117 0] 1 1
r 151.459100325 _1_ AGT  --- 258 ack 40 [13a 1 2 800] ------- [2:1 1:0 30 1] [116 0] 1 1
r 151.469246657 _2_ AGT  --- 225 tcp 1040 [13a 2 1 800] ------- [1:0 2:1 30 2] [118 0] 1 1
r 151.471192989 _1_ AGT  --- 259 ack 40 [13a 1 2 800] ------- [2:1 1:0 30 1] [117 0] 1 1
r 151.473360098 _1_ AGT  --- 261 ack 40 [13a 1 2 800] ------- [2:1 1:0 30 1] [118 0] 1 1
r 151.483326430 _2_ AGT  --- 228 tcp 1040 [13a 2 1 800] ------- [1:0 2:1 30 2] [119 0] 1 1
r 151.493313538 _2_ AGT  --- 230 tcp 1040 [13a 2 1 800] ------- [1:0 2:1 30 2] [120 0] 1 1
r 151.495359869 _1_ AGT  --- 264 ack 40 [13a 1 2 800] ------- [2:1 1:0 30 1] [119 0] 1 1
r 151.505246200 _2_ AGT  --- 232 tcp 1040 [13a 2 1 800] ------- [1:0 2:1 30 2] [121 0] 1 1
r 151.515393307 _2_ AGT  --- 233 tcp 1040 [13a 2 1 800] ------- [1:0 2:1 30 2] [122 0] 1 1
r 151.525360413 _2_ AGT  --- 235 tcp 1040 [13a 2 1 800] ------- [1:0 2:1 30 2] [123 0] 1 1
r 151.527266743 _1_ AGT  --- 265 ack 40 [13a 1 2 800] ------- [2:1 1:0 30 1] [120 0] 1 1
r 151.529593848 _1_ AGT  --- 267 ack 40 [13a 1 2 800] ------- [2:1 1:0 30 1] [121 0] 1 1
r 151.539440177 _2_ AGT  --- 236 tcp 1040 [13a 2 1 800] ------- [1:0 2:1 30 2] [124 0] 1 1
r 151.541286506 _1_ AGT  --- 268 ack 40 [13a 1 2 800] ------- [2:1 1:0 30 1] [122 0] 1 1
r 151.551472835 _2_ AGT  --- 237 tcp 1040 [13a 2 1 800] ------- [1:0 2:1 30 2] [125 0] 1 1
r 151.553499163 _1_ AGT  --- 269 ack 40 [13a 1 2 800] ------- [2:1 1:0 30 1] [123 0] 1 1
r 151.555426267 _1_ AGT  --- 272 ack 40 [13a 1 2 800] ------- [2:1 1:0 30 1] [124 0] 1 1
r 151.557313371 _1_ AGT  --- 274 ack 40 [13a 1 2 800] ------- [2:1 1:0 30 1] [125 0] 1 1
r 151.567359699 _2_ AGT  --- 240 tcp 1040 [13a 2 1 800] ------- [1:0 2:1 30 2] [126 0] 1 1
r 151.577466802 _2_ AGT  --- 242 tcp 1040 [13a 2 1 800] ------- [1:0 2:1 30 2] [127 0] 1 1
r 151.579393129 _1_ AGT  --- 278 ack 40 [13a 1 2 800] ------- [2:1 1:0 30 1] [126 0] 1 1
r 151.589299455 _2_ AGT  --- 244 tcp 1040 [13a 2 1 800] ------- [1:0 2:1 30 2] [128 0] 1 1
r 151.599206557 _2_ AGT  --- 245 tcp 1040 [13a 2 1 800] ------- [1:0 2:1 30 2] [129 0] 1 1
r 151.601092883 _1_ AGT  --- 279 ack 40 [13a 1 2 800] ------- [2:1 1:0 30 1] [127 0] 1 1
r 151.603179984 _1_ AGT  --- 281 ack 40 [13a 1 2 800] ------- [2:1 1:0 30 1] [128 0] 1 1
r 151.613246310 _2_ AGT  --- 247 tcp 1040 [13a 2 1 800] ------- [1:0 2:1 30 2] [130 0] 1 1
r 151.623073410 _2_ AGT  --- 249 tcp 1040 [13a 2 1 800] ------- [1:0 2:1 30 2] [131 0] 1 1
r 151.633100510 _2_ AGT  --- 251 tcp 1040 [13a 2 1 800] ------- [1:0 2:1 30 2] [132 0] 1 1
r 151.635066834 _1_ AGT  --- 282 ack 40 [13a 1 2 800] ------- [2:1 1:0 30 1] [129 0] 1 1
r 151.645093159 _2_ AGT  --- 253 tcp 1040 [13a 2 1 800] ------- [1:0 2:1 30 2] [133 0] 1 1
r 151.647199482 _1_ AGT  --- 285 ack 40 [13a 1 2 800] ------- [2:1 1:0 30 1] [130 0] 1 1
r 151.657245806 _2_ AGT  --- 255 tcp 1040 [13a 2 1 800] ------- [1:0 2:1 30 2] [134 0] 1 1
r 151.659392129 _1_ AGT  --- 286 ack 40 [13a 1 2 800] ------- [2:1 1:0 30 1] [131 0] 1 1
r 151.669498452 _2_ AGT  --- 257 tcp 1040 [13a 2 1 800] ------- [1:0 2:1 30 2] [135 0] 1 1
r 151.671404775 _1_ AGT  --- 287 ack 40 [13a 1 2 800] ------- [2:1 1:0 30 1] [132 0] 1 1
r 151.681251098 _2_ AGT  --- 260 tcp 1040 [13a 2 1 800] ------- [1:0 2:1 30 2] [136 0] 1 1
r 151.691378194 _2_ AGT  --- 262 tcp 1040 [13a 2 1 800] ------- [1:0 2:1 30 2] [137 0] 1 1
r 151.693284515 _1_ AGT  --- 289 ack 40 [13a 1 2 800] ------- [2:1 1:0 30 1] [133 0] 1 1
r 151.695311611 _1_ AGT  --- 291 ack 40 [13a 1 2 800] ------- [2:1 1:0 30 1] [134 0] 1 1
r 151.705157932 _2_ AGT  --- 263 tcp 1040 [13a 2 1 800] ------- [1:0 2:1 30 2] [138 0] 1 1
r 151.707404253 _1_ AGT  --- 293 ack 40 [13a 1 2 800] ------- [2:1 1:0 30 1] [135 0] 1 1
r 151.717270574 _2_ AGT  --- 266 tcp 1040 [13a 2 1 800] ------- [1:0 2:1 30 2] [139 0] 1 1
r 151.719156895 _1_ AGT  --- 295 ack 40 [13a 1 2 800] ------- [2:1 1:0 30 1] [136 0] 1 1
r 151.721163988 _1_ AGT  --- 296 ack 40 [13a 1 2 800] ------- [2:1 1:0 30 1] [137 0] 1 1
r 151.731050309 _2_ AGT  --- 270 tcp 1040 [13a 2 1 800] ------- [1:0 2:1 30 2] [140 0] 1 1
r 151.733036629 _1_ AGT  --- 299 ack 40 [13a 1 2 800] ------- [2:1 1:0 30 1] [138 0] 1 1
r 151.735063721 _1_ AGT  --- 301 ack 40 [13a 1 2 800] ------- [2:1 1:0 30 1] [139 0] 1 1
r 151.744910041 _2_ AGT  --- 271 tcp 1040 [13a 2 1 800] ------- [1:0 2:1 30 2] [141 0] 1 1
r 151.746956360 _1_ AGT  --- 304 ack 40 [13a 1 2 800] ------- [2:1 1:0 30 1] [140 0] 1 1
r 151.757082679 _2_ AGT  --- 273 tcp 1040 [13a 2 1 800] ------- [1:0 2:1 30 2] [142 0] 1 1
r 151.759088998 _1_ AGT  --- 307 ack 40 [13a 1 2 800] ------- [2:1 1:0 30 1] [141 0] 1 1
r 151.768935316 _2_ AGT  --- 275 tcp 1040 [13a 2 1 800] ------- [1:0 2:1 30 2] [143 0] 1 1
r 151.771201634 _1_ AGT  --- 309 ack 40 [13a 1 2 800] ------- [2:1 1:0 30 1] [142 0] 1 1
r 151.781067952 _2_ AGT  --- 276 tcp 1040 [13a 2 1 800] ------- [1:0 2:1 30 2] [144 0] 1 1
r 151.783254270 _1_ AGT  --- 311 ack 40 [13a 1 2 800] ------- [2:1 1:0 30 1] [143 0] 1 1
r 151.793160587 _2_ AGT  --- 277 tcp 1040 [13a 2 1 800] ------- [1:0 2:1 30 2] [145 0] 1 1
r 151.803047677 _2_ AGT  --- 280 tcp 1040 [13a 2 1 800] ------- [1:0 2:1 30 2] [146 0] 1 1
r 151.804933993 _1_ AGT  --- 313 ack 40 [13a 1 2 800] ------- [2:1 1:0 30 1] [144 0] 1 1
r 151.815320309 _2_ AGT  --- 283 tcp 1040 [13a 2 1 800] ------- [1:0 2:1 30 2] [147 0] 1 1
r 151.817166625 _1_ AGT  --- 315 ack 40 [13a 1 2 800] ------- [2:1 1:0 30 1] [145 0] 1 1
r 151.819353713 _1_ AGT  --- 316 ack 40 [13a 1 2 800] ------- [2:1 1:0 30 1] [146 0] 1 1
r 151.829360029 _2_ AGT  --- 284 tcp 1040 [13a 2 1 800] ------- [1:0 2:1 30 2] [148 0] 1 1
r 151.831246344 _1_ AGT  --- 318 ack 40 [13a 1 2 800] ------- [2:1 1:0 30 1] [147 0] 1 1
r 151.841152659 _2_ AGT  --- 288 tcp 1040 [13a 2 1 800] ------- [1:0 2:1 30 2] [149 0] 1 1
r 151.851259746 _2_ AGT  --- 290 tcp 1040 [13a 2 1 800] ------- [1:0 2:1 30 2] [150 0] 1 1
r 151.861106831 _2_ AGT  --- 292 tcp 1040 [13a 2 1 800] ------- [1:0 2:1 30 2] [151 0] 1 1
r 151.862953145 _1_ AGT  --- 321 ack 40 [13a 1 2 800] ------- [2:1 1:0 30 1] [148 0] 1 1
r 151.873299459 _2_ AGT  --- 294 tcp 1040 [13a 2 1 800] ------- [1:0 2:1 30 2] [152 0] 1 1
r 151.883186543 _2_ AGT  --- 297 tcp 1040 [13a 2 1 800] ------- [1:0 2:1 30 2] [153 0] 1 1
r 151.885032856 _1_ AGT  --- 323 ack 40 [13a 1 2 800] ------- [2:1 1:0 30 1] [149 0] 1 1
r 151.886999939 _1_ AGT  --- 324 ack 40 [13a 1 2 800] ------- [2:1 1:0 30 1] [150 0] 1 1
r 151.888967023 _1_ AGT  --- 325 ack 40 [13a 1 2 800] ------- [2:1 1:0 30 1] [151 0] 1 1
r 151.899053335 _2_ AGT  --- 298 tcp 1040 [13a 2 1 800] ------- [1:0 2:1 30 2] [154 0] 1 1
r 151.901139648 _1_ AGT  --- 327 ack 40 [13a 1 2 800] ------- [2:1 1:0 30 1] [152 0] 1 1
r 151.911125959 _2_ AGT  --- 300 tcp 1040 [13a 2 1 800] ------- [1:0 2:1 30 2] [155 0] 1 1
r 151.921113041 _2_ AGT  --- 302 tcp 1040 [13a 2 1 800] ------- [1:0 2:1 30 2] [156 0] 1 1
r 151.923019352 _1_ AGT  --- 328 ack 40 [13a 1 2 800] ------- [2:1 1:0 30 1] [153 0] 1 1
r 151.933045663 _2_ AGT  --- 303 tcp 1040 [13a 2 1 800] ------- [1:0 2:1 30 2] [157 0] 1 1
r 151.934971974 _1_ AGT  --- 332 ack 40 [13a 1 2 800] ------- [2:1 1:0 30 1] [154 0] 1 1
r 151.945178284 _2_ AGT  --- 305 tcp 1040 [13a 2 1 800] ------- [1:0 2:1 30 2] [158 0] 1 1
r 151.947104594 _1_ AGT  --- 334 ack 40 [13a 1 2 800] ------- [2:1 1:0 30 1] [155 0] 1 1
r 151.956950904 _2_ AGT  --- 306 tcp 1040 [13a 2 1 800] ------- [1:0 2:1 30 2] [159 0] 1 1
r 151.958797213 _1_ AGT  --- 335 ack 40 [13a 1 2 800] ------- [2:1 1:0 30 1] [156 0] 1 1
r 151.968723523 _2_ AGT  --- 308 tcp 1040 [13a 2 1 800] ------- [1:0 2:1 30 2] [160 0] 1 1
r 151.978610601 _2_ AGT  --- 310 tcp 1040 [13a 2 1 800] ------- [1:0 2:1 30 2] [161 0] 1 1
r 151.988457679 _2_ AGT  --- 312 tcp 1040 [13a 2 1 800] ------- [1:0 2:1 30 2] [162 0] 1 1
r 151.990503987 _1_ AGT  --- 337 ack 40 [13a 1 2 800] ------- [2:1 1:0 30 1] [157 0] 1 1
r 152.000570295 _2_ AGT  --- 314 tcp 1040 [13a 2 1 800] ------- [1:0 2:1 30 2] [163 0] 1 1
r 152.002576602 _1_ AGT  --- 339 ack 40 [13a 1 2 800] ------- [2:1 1:0 30 1] [158 0] 1 1
r 152.004483679 _1_ AGT  --- 341 ack 40 [13a 1 2 800] ------- [2:1 1:0 30 1] [159 0] 1 1
r 152.014329986 _2_ AGT  --- 317 tcp 1040 [13a 2 1 800] ------- [1:0 2:1 30 2] [164 0] 1 1
r 152.016296292 _1_ AGT  --- 344 ack 40 [13a 1 2 800] ------- [2:1 1:0 30 1] [160 0] 1 1
r 152.026502599 _2_ AGT  --- 319 tcp 1040 [13a 2 1 800] ------- [1:0 2:1 30 2] [165 0] 1 1
r 152.028388905 _1_ AGT  --- 345 ack 40 [13a 1 2 800] ------- [2:1 1:0 30 1] [161 0] 1 1
r 152.038315211 _2_ AGT  --- 320 tcp 1040 [13a 2 1 800] ------- [1:0 2:1 30 2] [166 0] 1 1
r 152.040241517 _1_ AGT  --- 346 ack 40 [13a 1 2 800] ------- [2:1 1:0 30 1] [162 0] 1 1
r 152.050307822 _2_ AGT  --- 322 tcp 1040 [13a 2 1 800] ------- [1:0 2:1 30 2] [167 0] 1 1
r 152.052274128 _1_ AGT  --- 348 ack 40 [13a 1 2 800] ------- [2:1 1:0 30 1] [163 0] 1 1
r 152.054461201 _1_ AGT  --- 351 ack 40 [13a 1 2 800] ------- [2:1 1:0 30 1] [164 0] 1 1
r 152.064327506 _2_ AGT  --- 326 tcp 1040 [13a 2 1 800] ------- [1:0 2:1 30 2] [168 0] 1 1
r 152.066473810 _1_ AGT  --- 353 ack 40 [13a 1 2 800] ------- [2:1 1:0 30 1] [165 0] 1 1
r 152.076400114 _2_ AGT  --- 329 tcp 1040 [13a 2 1 800] ------- [1:0 2:1 30 2] [169 0] 1 1