r 134.077942861 _2_ AGT  --- 0 cbr 532 [13a 2 e 800] ------- [0:0 2:0 28 2] [0] 3 3
r 134.096632956 _2_ AGT  --- 1 cbr 532 [13a 2 e 800] ------- [0:0 2:0 28 2] [1] 3 2
r 135.777551597 _2_ AGT  --- 2 cbr 532 [13a 2 e 800] ------- [0:0 2:0 28 2] [2] 3 2
r 140.724139337 _2_ AGT  --- 3 cbr 532 [13a 2 e 800] ------- [0:0 2:0 28 2] [3] 3 2
r 145.648361336 _2_ AGT  --- 4 cbr 532 [13a 2 e 800] ------- [0:0 2:0 28 2] [4] 3 2
r 148.799696216 _2_ AGT  --- 5 cbr 532 [13a 2 e 800] ------- [0:0 2:0 28 2] [5] 3 2
r 154.765765740 _2_ AGT  --- 401 cbr 532 [13a 2 e 800] ------- [0:0 2:0 28 2] [6] 3 2
r 159.551002076 _2_ AGT  --- 799 cbr 532 [13a 2 e 800] ------- [0:0 2:0 28 2] [7] 3 1
r 164.100790354 _2_ AGT  --- 1178 cbr 532 [13a 2 e 800] ------- [0:0 2:0 28 2] [8] 3 1
r 169.614221853 _2_ AGT  --- 1640 cbr 532 [13a 2 e 800] ------- [0:0 2:0 28 2] [9] 3 1
r 172.492280633 _2_ AGT  --- 1878 cbr 532 [13a 2 e 800] ------- [0:0 2:0 28 2] [10] 3 1
r 176.626182721 _2_ AGT  --- 2225 cbr 532 [13a 2 e 800] ------- [0:0 2:0 28 2] [11] 3 1
r 179.308928656 _2_ AGT  --- 2448 cbr 532 [13a 2 e 800] ------- [0:0 2:0 28 2] [12] 3 1
r 184.960632879 _2_ AGT  --- 2846 cbr 532 [13a 2 c 800] ------- [0:0 2:0 27 2] [13] 4 1
r 186.524596887 _2_ AGT  --- 3038 cbr 532 [13a 2 a 800] ------- [0:0 2:0 27 2] [14] 4 1
r 190.111861448 _2_ AGT  --- 3330 cbr 532 [13a 2 a 800] ------- [0:0 2:0 27 2] [15] 4 1
r 195.356745261 _2_ AGT  --- 3772 cbr 532 [13a 2 a 800] ------- [0:0 2:0 27 2] [16] 4 1
r 198.731493713 _2_ AGT  --- 4029 cbr 532 [13a 2 a 800] ------- [0:0 2:0 27 2] [17] 4 1
r 204.005050726 _2_ AGT  --- 4348 cbr 532 [13a 2 19 800] ------- [0:0 2:0 26 2] [18] 5 1
r 207.341081760 _2_ AGT  --- 4754 cbr 532 [13a 2 19 800] ------- [0:0 2:0 26 2] [19] 5 1
r 210.158404069 _2_ AGT  --- 4985 cbr 532 [13a 2 19 800] ------- [0:0 2:0 26 2] [20] 5 1
r 212.291693471 _2_ AGT  --- 5163 cbr 532 [13a 2 19 800] ------- [0:0 2:0 26 2] [21] 5 1
r 217.475138074 _2_ AGT  --- 5596 cbr 532 [13a 2 19 800] ------- [0:0 2:0 26 2] [22] 5 1
r 222.347120653 _2_ AGT  --- 6000 cbr 532 [13a 2 19 800] ------- [0:0 2:0 26 2] [23] 5 1
r 228.180762102 _2_ AGT  --- 6483 cbr 532 [13a 2 19 800] ------- [0:0 2:0 26 2] [24] 5 1
r 234.480445993 _2_ AGT  --- 6974 cbr 532 [13a 2 19 800] ------- [0:0 2:0 26 2] [25] 5 1
r 240.046589194 _2_ AGT  --- 7836 cbr 532 [13a 2 19 800] ------- [0:0 2:0 27 2] [27] 4 2
r 244.021835630 _2_ AGT  --- 8486 cbr 532 [13a 2 b 800] ------- [0:0 2:0 29 2] [28] 2 2
r 249.553845934 _2_ AGT  --- 9404 cbr 532 [13a 2 b 800] ------- [0:0 2:0 29 2] [29] 2 2
r 255.373025651 _2_ AGT  --- 9976 cbr 532 [13a 2 b 800] ------- [0:0 2:0 29 2] [30] 2 2
r 260.603517376 _2_ AGT  --- 10420 cbr 532 [13a 2 b 800] ------- [0:0 2:0 29 2] [31] 2 2
r 264.513597302 _2_ AGT  --- 10748 cbr 532 [13a 2 b 800] ------- [0:0 2:0 29 2] [32] 2 2
r 269.713481566 _2_ AGT  --- 11189 cbr 532 [13a 2 b 800] ------- [0:0 2:0 29 2] [33] 2 2
r 272.764494064 _2_ AGT  --- 11394 cbr 532 [13a 2 1e 800] ------- [0:0 2:0 29 2] [34] 2 2
r 274.925830355 _2_ AGT  --- 11578 cbr 532 [13a 2 1e 800] ------- [0:0 2:0 29 2] [35] 2 2
r 279.002120889 _2_ AGT  --- 11918 cbr 532 [13a 2 1e 800] ------- [0:0 2:0 29 2] [36] 2 2
r 284.621361627 _2_ AGT  --- 12379 cbr 532 [13a 2 1e 800] ------- [0:0 2:0 29 2] [37] 2 2
r 291.824971496 _2_ AGT  --- 12902 cbr 532 [13a 2 22 800] ------- [0:0 2:0 28 2] [39] 3 3
r 295.120154805 _2_ AGT  --- 13086 cbr 532 [13a 2 f 800] ------- [0:0 2:0 27 2] [40] 4 3
r 297.053840388 _2_ AGT  --- 13198 cbr 532 [13a 2 f 800] ------- [0:0 2:0 27 2] [41] 4 3
r 301.833204921 _2_ AGT  --- 13456 cbr 532 [13a 2 f 800] ------- [0:0 2:0 27 2] [42] 4 3
r 304.795109578 _2_ AGT  --- 13549 cbr 532 [13a 2 8 800] ------- [0:0 2:0 27 2] [43] 4 3
r 309.465319604 _2_ AGT  --- 13805 cbr 532 [13a 2 8 800] ------- [0:0 2:0 27 2] [44] 4 3
r 312.170392905 _2_ AGT  --- 13951 cbr 532 [13a 2 8 800] ------- [0:0 2:0 27 2] [45] 4 3
r 314.995624635 _2_ AGT  --- 14098 cbr 532 [13a 2 8 800] ------- [0:0 2:0 27 2] [46] 4 3
r 319.519208127 _2_ AGT  --- 14287 cbr 532 [13a 2 8 800] ------- [0:0 2:0 27 2] [47] 4 3
r 325.646776366 _2_ AGT  --- 14483 cbr 532 [13a 2 2b 800] ------- [0:0 2:0 24 2] [48] 7 3
r 327.785936956 _2_ AGT  --- 14639 cbr 532 [13a 2 2b 800] ------- [0:0 2:0 26 2] [49] 5 3
r 332.227452511 _2_ AGT  --- 14824 cbr 532 [13a 2 2b 800] ------- [0:0 2:0 26 2] [50] 5 3
r 335.701992748 _2_ AGT  --- 14974 cbr 532 [13a 2 2b 800] ------- [0:0 2:0 26 2] [51] 5 3
r 341.710819756 _2_ AGT  --- 15224 cbr 532 [13a 2 2b 800] ------- [0:0 2:0 26 2] [52] 5 3
r 344.944599055 _2_ AGT  --- 15356 cbr 532 [13a 2 2b 800] ------- [0:0 2:0 26 2] [53] 5 3
r 350.517939227 _2_ AGT  --- 15586 cbr 532 [13a 2 2b 800] ------- [0:0 2:0 26 2] [54] 5 3
r 354.667466245 _2_ AGT  --- 15757 cbr 532 [13a 2 2b 800] ------- [0:0 2:0 26 2] [55] 5 3
r 357.649016925 _2_ AGT  --- 15885 cbr 532 [13a 2 2b 800] ------- [0:0 2:0 26 2] [56] 5 3
r 373.084667065 _2_ AGT  --- 16918 cbr 532 [13a 2 24 800] ------- [0:0 2:0 28 2] [60] 3 2
r 379.138313910 _2_ AGT  --- 17235 cbr 532 [13a 2 24 800] ------- [0:0 2:0 28 2] [61] 3 2
r 382.555470321 _2_ AGT  --- 17433 cbr 532 [13a 2 24 800] ------- [0:0 2:0 28 2] [62] 3 2
r 384.844557722 _2_ AGT  --- 17561 cbr 532 [13a 2 24 800] ------- [0:0 2:0 28 2] [63] 3 2
r 388.218648280 _2_ AGT  --- 17752 cbr 532 [13a 2 11 800] ------- [0:0 2:0 27 2] [64] 4 2
r 390.346622134 _2_ AGT  --- 17873 cbr 532 [13a 2 11 800] ------- [0:0 2:0 27 2] [65] 4 2
r 392.875836657 _2_ AGT  --- 18008 cbr 532 [13a 2 11 800] ------- [0:0 2:0 27 2] [66] 4 2
r 394.973378855 _2_ AGT  --- 18084 cbr 532 [13a 2 11 800] ------- [0:0 2:0 27 2] [67] 4 2
r 399.633345203 _2_ AGT  --- 18456 cbr 532 [13a 2 11 800] ------- [0:0 2:0 27 2] [68] 4 2
