s 127.936679222 _0_ AGT  --- 0 cbr 512 [0 0 0 0] ------- [0:0 2:0 32 0] [0] 0 1
s 132.160202086 _0_ AGT  --- 1 cbr 512 [0 0 0 0] ------- [0:0 2:0 32 0] [1] 0 1
s 134.239939346 _0_ AGT  --- 2 cbr 512 [0 0 0 0] ------- [0:0 2:0 32 0] [2] 0 1
s 138.189711057 _0_ AGT  --- 3 cbr 512 [0 0 0 0] ------- [0:0 2:0 32 0] [3] 0 1
s 142.949340063 _0_ AGT  --- 4 cbr 512 [0 0 0 0] ------- [0:0 2:0 32 0] [4] 0 2
s 148.542652693 _0_ AGT  --- 5 cbr 512 [0 0 0 0] ------- [0:0 2:0 32 0] [5] 0 2
s 150.000000000 _1_ AGT  --- 6 tcp 40 [0 0 0 0] ------- [1:0 2:1 32 0] [0 0] 0 1
s 150.033665463 _2_ AGT  --- 7 ack 40 [0 0 0 0] ------- [2:1 1:0 32 0] [0 0] 0 1
s 150.035711862 _1_ AGT  --- 8 tcp 1040 [0 0 0 0] ------- [1:0 2:1 32 0] [1 0] 0 1
s 150.035711862 _1_ AGT  --- 9 tcp 1040 [0 0 0 0] ------- [1:0 2:1 32 0] [2 0] 0 1
s 150.045658261 _2_ AGT  --- 10 ack 40 [0 0 0 0] ------- [2:1 1:0 32 0] [1 0] 0 1
s 150.055625458 _2_ AGT  --- 11 ack 40 [0 0 0 0] ------- [2:1 1:0 32 0] [2 0] 0 1
s 150.061047125 _1_ AGT  --- 12 tcp 1040 [0 0 0 0] ------- [1:0 2:1 32 0] [3 0] 0 1
s 150.061047125 _1_ AGT  --- 13 tcp 1040 [0 0 0 0] ------- [1:0 2:1 32 0] [4 0] 0 1
s 150.063074322 _1_ AGT  --- 14 tcp 1040 [0 0 0 0] ------- [1:0 2:1 32 0] [5 0] 0 1
s 150.063074322 _1_ AGT  --- 15 tcp 1040 [0 0 0 0] ------- [1:0 2:1 32 0] [6 0] 0 1
s 150.073100720 _2_ AGT  --- 16 ack 40 [0 0 0 0] ------- [2:1 1:0 32 0] [3 0] 0 1
s 150.074947117 _1_ AGT  --- 17 tcp 1040 [0 0 0 0] ------- [1:0 2:1 32 0] [7 0] 0 1
s 150.074947117 _1_ AGT  --- 18 tcp 1040 [0 0 0 0] ------- [1:0 2:1 32 0] [8 0] 0 1
s 150.093526869 _2_ AGT  --- 19 ack 40 [0 0 0 0] ------- [2:1 1:0 32 0] [4 0] 0 1
s 150.095473265 _1_ AGT  --- 20 tcp 1040 [0 0 0 0] ------- [1:0 2:1 32 0] [9 0] 0 1
s 150.095473265 _1_ AGT  --- 21 tcp 1040 [0 0 0 0] ------- [1:0 2:1 32 0] [10 0] 0 1
s 150.106298187 _2_ AGT  --- 22 ack 40 [0 0 0 0] ------- [2:1 1:0 32 0] [5 0] 0 1
s 150.121666842 _2_ AGT  --- 23 ack 40 [0 0 0 0] ------- [2:1 1:0 32 0] [6 0] 0 1
s 150.123633237 _1_ AGT  --- 24 tcp 1040 [0 0 0 0] ------- [1:0 2:1 32 0] [11 0] 0 1
s 150.123633237 _1_ AGT  --- 25 tcp 1040 [0 0 0 0] ------- [1:0 2:1 32 0] [12 0] 0 1
s 150.125460429 _1_ AGT  --- 26 tcp 1040 [0 0 0 0] ------- [1:0 2:1 32 0] [13 0] 0 1
s 150.125460429 _1_ AGT  --- 27 tcp 1040 [0 0 0 0] ------- [1:0 2:1 32 0] [14 0] 0 1
s 150.135366824 _2_ AGT  --- 28 ack 40 [0 0 0 0] ------- [2:1 1:0 32 0] [7 0] 0 1
s 150.145234016 _2_ AGT  --- 29 ack 40 [0 0 0 0] ------- [2:1 1:0 32 0] [8 0] 0 1
s 150.147100410 _1_ AGT  --- 30 tcp 1040 [0 0 0 0] ------- [1:0 2:1 32 0] [15 0] 0 1
s 150.147100410 _1_ AGT  --- 31 tcp 1040 [0 0 0 0] ------- [1:0 2:1 32 0] [16 0] 0 1
s 150.157266803 _2_ AGT  --- 32 ack 40 [0 0 0 0] ------- [2:1 1:0 32 0] [9 0] 0 1
s 150.159293196 _1_ AGT  --- 33 tcp 1040 [0 0 0 0] ------- [1:0 2:1 32 0] [17 0] 0 1
s 150.159293196 _1_ AGT  --- 34 tcp 1040 [0 0 0 0] ------- [1:0 2:1 32 0] [18 0] 0 1
s 150.169499589 _2_ AGT  --- 35 ack 40 [0 0 0 0] ------- [2:1 1:0 32 0] [10 0] 0 1
s 150.171465982 _1_ AGT  --- 36 tcp 1040 [0 0 0 0] ------- [1:0 2:1 32 0] [19 0] 0 1
s 150.171465982 _1_ AGT  --- 37 tcp 1040 [0 0 0 0] ------- [1:0 2:1 32 0] [20 0] 0 1
s 150.175541973 _1_ AGT  --- 38 tcp 1040 [0 0 0 0] ------- [1:0 2:1 32 0] [21 0] 0 1
s 150.175541973 _1_ AGT  --- 39 tcp 1040 [0 0 0 0] ------- [1:0 2:1 32 0] [22 0] 0 1
s 150.185588365 _2_ AGT  --- 40 ack 40 [0 0 0 0] ------- [2:1 1:0 32 0] [11 0] 0 1
s 150.189653153 _1_ AGT  --- 41 tcp 1040 [0 0 0 0] ------- [1:0 2:1 32 0] [23 0] 0 1
s 150.189653153 _1_ AGT  --- 42 tcp 1040 [0 0 0 0] ------- [1:0 2:1 32 0] [24 0] 0 1
s 150.199659544 _2_ AGT  --- 43 ack 40 [0 0 0 0] ------- [2:1 1:0 32 0] [12 0] 0 1
s 150.201625935 _1_ AGT  --- 44 tcp 1040 [0 0 0 0] ------- [1:0 2:1 32 0] [25 0] 0 1
s 150.201625935 _1_ AGT  --- 45 tcp 1040 [0 0 0 0] ------- [1:0 2:1 32 0] [26 0] 0 1
s 150.211912326 _2_ AGT  --- 46 ack 40 [0 0 0 0] ------- [2:1 1:0 32 0] [13 0] 0 1
s 150.214158717 _1_ AGT  --- 47 tcp 1040 [0 0 0 0] ------- [1:0 2:1 32 0] [27 0] 0 1
s 150.214158717 _1_ AGT  --- 48 tcp 1040 [0 0 0 0] ------- [1:0 2:1 32 0] [28 0] 0 1
s 150.224145107 _2_ AGT  --- 49 ack 40 [0 0 0 0] ------- [2:1 1:0 32 0] [14 0] 0 1
s 150.226171497 _1_ AGT  --- 50 tcp 1040 [0 0 0 0] ------- [1:0 2:1 32 0] [29 0] 0 1
s 150.226171497 _1_ AGT  --- 51 tcp 1040 [0 0 0 0] ------- [1:0 2:1 32 0] [30 0] 0 1
s 150.236297887 _2_ AGT  --- 52 ack 40 [0 0 0 0] ------- [2:1 1:0 32 0] [15 0] 0 1
s 150.238144276 _1_ AGT  --- 53 tcp 1040 [0 0 0 0] ------- [1:0 2:1 32 0] [31 0] 0 1
s 150.238144276 _1_ AGT  --- 54 tcp 1040 [0 0 0 0] ------- [1:0 2:1 32 0] [32 0] 0 1
s 150.248130665 _2_ AGT  --- 55 ack 40 [0 0 0 0] ------- [2:1 1:0 32 0] [16 0] 0 1
s 150.250017054 _1_ AGT  --- 56 tcp 1040 [0 0 0 0] ------- [1:0 2:1 32 0] [33 0] 0 1
s 150.250017054 _1_ AGT  --- 57 tcp 1040 [0 0 0 0] ------- [1:0 2:1 32 0] [34 0] 0 1
s 150.260083443 _2_ AGT  --- 58 ack 40 [0 0 0 0] ------- [2:1 1:0 32 0] [17 0] 0 1
s 150.262149831 _1_ AGT  --- 59 tcp 1040 [0 0 0 0] ------- [1:0 2:1 32 0] [35 0] 0 1
s 150.262149831 _1_ AGT  --- 60 tcp 1040 [0 0 0 0] ------- [1:0 2:1 32 0] [36 0] 0 1
s 150.272336219 _2_ AGT  --- 61 ack 40 [0 0 0 0] ------- [2:1 1:0 32 0] [18 0] 0 1
s 150.274182607 _1_ AGT  --- 62 tcp 1040 [0 0 0 0] ------- [1:0 2:1 32 0] [37 0] 0 1
s 150.274182607 _1_ AGT  --- 63 tcp 1040 [0 0 0 0] ------- [1:0 2:1 32 0] [38 0] 0 1
s 150.284388994 _2_ AGT  --- 64 ack 40 [0 0 0 0] ------- [2:1 1:0 32 0] [19 0] 0 1
s 150.286415381 _1_ AGT  --- 65 tcp 1040 [0 0 0 0] ------- [1:0 2:1 32 0] [39 0] 0 1
s 150.296661768 _2_ AGT  --- 66 ack 40 [0 0 0 0] ------- [2:1 1:0 32 0] [20 0] 0 1
s 150.298508155 _1_ AGT  --- 67 tcp 1040 [0 0 0 0] ------- [1:0 2:1 32 0] [40 0] 0 1
s 150.308774541 _2_ AGT  --- 68 ack 40 [0 0 0 0] ------- [2:1 1:0 32 0] [21 0] 0 1
s 150.319121722 _2_ AGT  --- 69 ack 40 [0 0 0 0] ------- [2:1 1:0 32 0] [22 0] 0 1
s 150.320968108 _1_ AGT  --- 70 tcp 1040 [0 0 0 0] ------- [1:0 2:1 32 0] [41 0] 0 1
s 150.330834493 _2_ AGT  --- 71 ack 40 [0 0 0 0] ------- [2:1 1:0 32 0] [23 0] 0 1
s 150.332900878 _1_ AGT  --- 72 tcp 1040 [0 0 0 0] ------- [1:0 2:1 32 0] [42 0] 0 1
s 150.334808058 _1_ AGT  --- 73 tcp 1040 [0 0 0 0] ------- [1:0 2:1 32 0] [43 0] 0 1
s 150.344654443 _2_ AGT  --- 74 ack 40 [0 0 0 0] ------- [2:1 1:0 32 0] [24 0] 0 1
s 150.354721622 _2_ AGT  --- 75 ack 40 [0 0 0 0] ------- [2:1 1:0 32 0] [25 0] 0 1
s 150.356648006 _1_ AGT  --- 76 tcp 1040 [0 0 0 0] ------- [1:0 2:1 32 0] [44 0] 0 1
s 150.358555184 _1_ AGT  --- 77 tcp 1040 [0 0 0 0] ------- [1:0 2:1 32 0] [45 0] 0 1
s 150.368461567 _2_ AGT  --- 78 ack 40 [0 0 0 0] ------- [2:1 1:0 32 0] [26 0] 0 1
s 150.370447951 _1_ AGT  --- 79 tcp 1040 [0 0 0 0] ------- [1:0 2:1 32 0] [46 0] 0 1
s 150.380574334 _2_ AGT  --- 80 ack 40 [0 0 0 0] ------- [2:1 1:0 32 0] [27 0] 0 1
s 150.382560716 _1_ AGT  --- 81 tcp 1040 [0 0 0 0] ------- [1:0 2:1 32 0] [47 0] 0 1
s 150.392507099 _2_ AGT  --- 82 ack 40 [0 0 0 0] ------- [2:1 1:0 32 0] [28 0] 0 1
s 150.394633481 _1_ AGT  --- 83 tcp 1040 [0 0 0 0] ------- [1:0 2:1 32 0] [48 0] 0 1
s 150.404699863 _2_ AGT  --- 84 ack 40 [0 0 0 0] ------- [2:1 1:0 32 0] [29 0] 0 1
s 150.414607038 _2_ AGT  --- 85 ack 40 [0 0 0 0] ------- [2:1 1:0 32 0] [30 0] 0 1
s 150.424634213 _2_ AGT  --- 86 ack 40 [0 0 0 0] ------- [2:1 1:0 32 0] [31 0] 0 1
s 150.426680593 _1_ AGT  --- 87 tcp 1040 [0 0 0 0] ------- [1:0 2:1 32 0] [49 0] 0 1
s 150.436626974 _2_ AGT  --- 88 ack 40 [0 0 0 0] ------- [2:1 1:0 32 0] [32 0] 0 1
s 150.446454147 _2_ AGT  --- 89 ack 40 [0 0 0 0] ------- [2:1 1:0 32 0] [33 0] 0 1
s 150.448420526 _1_ AGT  --- 90 tcp 1040 [0 0 0 0] ------- [1:0 2:1 32 0] [50 0] 0 1
s 150.458686906 _2_ AGT  --- 91 ack 40 [0 0 0 0] ------- [2:1 1:0 32 0] [34 0] 0 1
s 150.460553285 _1_ AGT  --- 92 tcp 1040 [0 0 0 0] ------- [1:0 2:1 32 0] [51 0] 0 1
s 150.470699664 _2_ AGT  --- 93 ack 40 [0 0 0 0] ------- [2:1 1:0 32 0] [35 0] 0 1
s 150.480586835 _2_ AGT  --- 94 ack 40 [0 0 0 0] ------- [2:1 1:0 32 0] [36 0] 0 1
s 150.482493213 _1_ AGT  --- 95 tcp 1040 [0 0 0 0] ------- [1:0 2:1 32 0] [52 0] 0 1
s 150.492339590 _2_ AGT  --- 96 ack 40 [0 0 0 0] ------- [2:1 1:0 32 0] [37 0] 0 1
s 150.502286760 _2_ AGT  --- 97 ack 40 [0 0 0 0] ------- [2:1 1:0 32 0] [38 0] 0 1
s 150.512173930 _2_ AGT  --- 98 ack 40 [0 0 0 0] ------- [2:1 1:0 32 0] [39 0] 0 1
s 150.514120306 _1_ AGT  --- 99 tcp 1040 [0 0 0 0] ------- [1:0 2:1 32 0] [53 0] 0 1
s 150.516047474 _1_ AGT  --- 100 tcp 1040 [0 0 0 0] ------- [1:0 2:1 32 0] [54 0] 0 1
s 150.525953851 _2_ AGT  --- 101 ack 40 [0 0 0 0] ------- [2:1 1:0 32 0] [40 0] 0 1
s 150.536141018 _2_ AGT  --- 102 ack 40 [0 0 0 0] ------- [2:1 1:0 32 0] [41 0] 0 1
s 150.538007394 _1_ AGT  --- 103 tcp 1040 [0 0 0 0] ------- [1:0 2:1 32 0] [55 0] 0 1
s 150.540014561 _1_ AGT  --- 104 tcp 1040 [0 0 0 0] ------- [1:0 2:1 32 0] [56 0] 0 1
s 150.550180936 _2_ AGT  --- 105 ack 40 [0 0 0 0] ------- [2:1 1:0 32 0] [42 0] 0 1
s 150.552167311 _1_ AGT  --- 106 tcp 1040 [0 0 0 0] ------- [1:0 2:1 32 0] [57 0] 0 1
s 150.554014477 _1_ AGT  --- 107 tcp 1040 [0 0 0 0] ------- [1:0 2:1 32 0] [58 0] 0 1
s 150.556001643 _1_ AGT  --- 108 tcp 1040 [0 0 0 0] ------- [1:0 2:1 32 0] [59 0] 0 1
s 150.566008017 _2_ AGT  --- 109 ack 40 [0 0 0 0] ------- [2:1 1:0 32 0] [43 0] 0 1
s 150.568194391 _1_ AGT  --- 110 tcp 1040 [0 0 0 0] ------- [1:0 2:1 32 0] [60 0] 0 1
s 150.578120765 _2_ AGT  --- 111 ack 40 [0 0 0 0] ------- [2:1 1:0 32 0] [44 0] 0 1
s 150.580127138 _1_ AGT  --- 112 tcp 1040 [0 0 0 0] ------- [1:0 2:1 32 0] [61 0] 0 1
s 150.590013511 _2_ AGT  --- 113 ack 40 [0 0 0 0] ------- [2:1 1:0 32 0] [45 0] 0 1
s 150.591959884 _1_ AGT  --- 114 tcp 1040 [0 0 0 0] ------- [1:0 2:1 32 0] [62 0] 0 1
s 150.594067048 _1_ AGT  --- 115 tcp 1040 [0 0 0 0] ------- [1:0 2:1 32 0] [63 0] 0 1
s 150.603953420 _2_ AGT  --- 116 ack 40 [0 0 0 0] ------- [2:1 1:0 32 0] [46 0] 0 1
s 150.613780583 _2_ AGT  --- 117 ack 40 [0 0 0 0] ------- [2:1 1:0 32 0] [47 0] 0 1
s 150.623867746 _2_ AGT  --- 118 ack 40 [0 0 0 0] ------- [2:1 1:0 32 0] [48 0] 0 1
s 150.625954117 _1_ AGT  --- 119 tcp 1040 [0 0 0 0] ------- [1:0 2:1 32 0] [64 0] 0 1
s 150.627841278 _1_ AGT  --- 120 tcp 1040 [0 0 0 0] ------- [1:0 2:1 32 0] [65 0] 0 1
s 150.637947649 _2_ AGT  --- 121 ack 40 [0 0 0 0] ------- [2:1 1:0 32 0] [49 0] 0 1
s 150.647854810 _2_ AGT  --- 122 ack 40 [0 0 0 0] ------- [2:1 1:0 32 0] [50 0] 0 1
s 150.649701180 _1_ AGT  --- 123 tcp 1040 [0 0 0 0] ------- [1:0 2:1 32 0] [66 0] 0 1
s 150.651568340 _1_ AGT  --- 124 tcp 1040 [0 0 0 0] ------- [1:0 2:1 32 0] [67 0] 0 1
s 150.661934710 _2_ AGT  --- 125 ack 40 [0 0 0 0] ------- [2:1 1:0 32 0] [51 0] 0 1
s 150.663781080 _1_ AGT  --- 126 tcp 1040 [0 0 0 0] ------- [1:0 2:1 32 0] [68 0] 0 1
s 150.665708239 _1_ AGT  --- 127 tcp 1040 [0 0 0 0] ------- [1:0 2:1 32 0] [69 0] 0 1
s 150.675614608 _2_ AGT  --- 128 ack 40 [0 0 0 0] ------- [2:1 1:0 32 0] [52 0] 0 1
s 150.677680977 _1_ AGT  --- 129 tcp 1040 [0 0 0 0] ------- [1:0 2:1 32 0] [70 0] 0 1
s 150.679508135 _1_ AGT  --- 130 tcp 1040 [0 0 0 0] ------- [1:0 2:1 32 0] [71 0] 0 1
s 150.681615293 _1_ AGT  --- 131 tcp 1040 [0 0 0 0] ------- [1:0 2:1 32 0] [72 0] 0 1
s 150.691461662 _2_ AGT  --- 132 ack 40 [0 0 0 0] ------- [2:1 1:0 32 0] [53 0] 0 1
s 150.693528030 _1_ AGT  --- 133 tcp 1040 [0 0 0 0] ------- [1:0 2:1 32 0] [73 0] 0 1
s 150.703674398 _2_ AGT  --- 134 ack 40 [0 0 0 0] ------- [2:1 1:0 32 0] [54 0] 0 1
s 150.705680765 _1_ AGT  --- 135 tcp 1040 [0 0 0 0] ------- [1:0 2:1 32 0] [74 0] 0 1
s 150.715927133 _2_ AGT  --- 136 ack 40 [0 0 0 0] ------- [2:1 1:0 32 0] [55 0] 0 1
s 150.725914289 _2_ AGT  --- 137 ack 40 [0 0 0 0] ------- [2:1 1:0 32 0] [56 0] 0 1
s 150.727920655 _1_ AGT  --- 138 tcp 1040 [0 0 0 0] ------- [1:0 2:1 32 0] [75 0] 0 1
s 150.737827021 _2_ AGT  --- 139 ack 40 [0 0 0 0] ------- [2:1 1:0 32 0] [57 0] 0 1
s 150.740053387 _1_ AGT  --- 140 tcp 1040 [0 0 0 0] ------- [1:0 2:1 32 0] [76 0] 0 1
s 150.749899753 _2_ AGT  --- 141 ack 40 [0 0 0 0] ------- [2:1 1:0 32 0] [58 0] 0 1
s 150.751886118 _1_ AGT  --- 142 tcp 1040 [0 0 0 0] ------- [1:0 2:1 32 0] [77 0] 0 1
s 150.762112484 _2_ AGT  --- 143 ack 40 [0 0 0 0] ------- [2:1 1:0 32 0] [59 0] 0 1
s 150.772039637 _2_ AGT  --- 144 ack 40 [0 0 0 0] ------- [2:1 1:0 32 0] [60 0] 0 1
s 150.773926001 _1_ AGT  --- 145 tcp 1040 [0 0 0 0] ------- [1:0 2:1 32 0] [78 0] 0 1
s 150.775933153 _1_ AGT  --- 146 tcp 1040 [0 0 0 0] ------- [1:0 2:1 32 0] [79 0] 0 1
s 150.785879518 _2_ AGT  --- 147 ack 40 [0 0 0 0] ------- [2:1 1:0 32 0] [61 0] 0 1
s 150.787845881 _1_ AGT  --- 148 tcp 1040 [0 0 0 0] ------- [1:0 2:1 32 0] [80 0] 0 1
s 150.797732245 _2_ AGT  --- 149 ack 40 [0 0 0 0] ------- [2:1 1:0 32 0] [62 0] 0 1
s 150.799678608 _1_ AGT  --- 150 tcp 1040 [0 0 0 0] ------- [1:0 2:1 32 0] [81 0] 0 1
s 150.801605759 _1_ AGT  --- 151 tcp 1040 [0 0 0 0] ------- [1:0 2:1 32 0] [82 0] 0 1
s 150.811612122 _2_ AGT  --- 152 ack 40 [0 0 0 0] ------- [2:1 1:0 32 0] [63 0] 0 1
s 150.813578484 _1_ AGT  --- 153 tcp 1040 [0 0 0 0] ------- [1:0 2:1 32 0] [83 0] 0 1
s 150.823804846 _2_ AGT  --- 154 ack 40 [0 0 0 0] ------- [2:1 1:0 32 0] [64 0] 0 1
s 150.834071996 _2_ AGT  --- 155 ack 40 [0 0 0 0] ------- [2:1 1:0 32 0] [65 0] 0 1
s 150.843899144 _2_ AGT  --- 156 ack 40 [0 0 0 0] ------- [2:1 1:0 32 0] [66 0] 0 1
s 150.845745505 _1_ AGT  --- 157 tcp 1040 [0 0 0 0] ------- [1:0 2:1 32 0] [84 0] 0 1
s 150.847772653 _1_ AGT  --- 158 tcp 1040 [0 0 0 0] ------- [1:0 2:1 32 0] [85 0] 0 1
s 150.857659014 _2_ AGT  --- 159 ack 40 [0 0 0 0] ------- [2:1 1:0 32 0] [67 0] 0 1
s 150.859785374 _1_ AGT  --- 160 tcp 1040 [0 0 0 0] ------- [1:0 2:1 32 0] [86 0] 0 1
s 150.869671734 _2_ AGT  --- 161 ack 40 [0 0 0 0] ------- [2:1 1:0 32 0] [68 0] 0 1
s 150.879578881 _2_ AGT  --- 162 ack 40 [0 0 0 0] ------- [2:1 1:0 32 0] [69 0] 0 1
s 150.889686026 _2_ AGT  --- 163 ack 40 [0 0 0 0] ------- [2:1 1:0 32 0] [70 0] 0 1
s 150.891692385 _1_ AGT  --- 164 tcp 1040 [0 0 0 0] ------- [1:0 2:1 32 0] [87 0] 0 1
s 150.901718744 _2_ AGT  --- 165 ack 40 [0 0 0 0] ------- [2:1 1:0 32 0] [71 0] 0 1
s 150.903645102 _1_ AGT  --- 166 tcp 1040 [0 0 0 0] ------- [1:0 2:1 32 0] [88 0] 0 1
s 150.913691460 _2_ AGT  --- 167 ack 40 [0 0 0 0] ------- [2:1 1:0 32 0] [72 0] 0 1
s 150.923598604 _2_ AGT  --- 168 ack 40 [0 0 0 0] ------- [2:1 1:0 32 0] [73 0] 0 1
s 150.925464961 _1_ AGT  --- 169 tcp 1040 [0 0 0 0] ------- [1:0 2:1 32 0] [89 0] 0 1
s 150.935331318 _2_ AGT  --- 170 ack 40 [0 0 0 0] ------- [2:1 1:0 32 0] [74 0] 0 1
s 150.937377675 _1_ AGT  --- 171 tcp 1040 [0 0 0 0] ------- [1:0 2:1 32 0] [90 0] 0 1
s 150.947224032 _2_ AGT  --- 172 ack 40 [0 0 0 0] ------- [2:1 1:0 32 0] [75 0] 0 1
s 150.949610388 _1_ AGT  --- 173 tcp 1040 [0 0 0 0] ------- [1:0 2:1 32 0] [91 0] 0 1
s 150.959476744 _2_ AGT  --- 174 ack 40 [0 0 0 0] ------- [2:1 1:0 32 0] [76 0] 0 1
s 150.961403100 _1_ AGT  --- 175 tcp 1040 [0 0 0 0] ------- [1:0 2:1 32 0] [92 0] 0 1
s 150.971349455 _2_ AGT  --- 176 ack 40 [0 0 0 0] ------- [2:1 1:0 32 0] [77 0] 0 1
s 150.973395810 _1_ AGT  --- 177 tcp 1040 [0 0 0 0] ------- [1:0 2:1 32 0] [93 0] 0 1
s 150.983302165 _2_ AGT  --- 178 ack 40 [0 0 0 0] ------- [2:1 1:0 32 0] [78 0] 0 1
s 150.985228519 _1_ AGT  --- 179 tcp 1040 [0 0 0 0] ------- [1:0 2:1 32 0] [94 0] 0 1
s 150.995394874 _2_ AGT  --- 180 ack 40 [0 0 0 0] ------- [2:1 1:0 32 0] [79 0] 0 1
s 150.997501228 _1_ AGT  --- 181 tcp 1040 [0 0 0 0] ------- [1:0 2:1 32 0] [95 0] 0 1
s 150.999568366 _1_ AGT  --- 182 tcp 1040 [0 0 0 0] ------- [1:0 2:1 32 0] [96 0] 0 1
s 151.009454720 _2_ AGT  --- 183 ack 40 [0 0 0 0] ------- [2:1 1:0 32 0] [80 0] 0 1
s 151.019561858 _2_ AGT  --- 184 ack 40 [0 0 0 0] ------- [2:1 1:0 32 0] [81 0] 0 1
s 151.021568210 _1_ AGT  --- 185 tcp 1040 [0 0 0 0] ------- [1:0 2:1 32 0] [97 0] 0 1
s 151.023515347 _1_ AGT  --- 186 tcp 1040 [0 0 0 0] ------- [1:0 2:1 32 0] [98 0] 0 1
s 151.025402484 _1_ AGT  --- 187 tcp 1040 [0 0 0 0] ------- [1:0 2:1 32 0] [99 0] 0 1
s 151.035488837 _2_ AGT  --- 188 ack 40 [0 0 0 0] ------- [2:1 1:0 32 0] [82 0] 0 1
s 151.037355189 _1_ AGT  --- 189 tcp 1040 [0 0 0 0] ------- [1:0 2:1 32 0] [100 0] 0 1
s 151.047241541 _2_ AGT  --- 190 ack 40 [0 0 0 0] ------- [2:1 1:0 32 0] [83 0] 0 1
s 151.049227892 _1_ AGT  --- 191 tcp 1040 [0 0 0 0] ------- [1:0 2:1 32 0] [101 0] 0 1
s 151.059314244 _2_ AGT  --- 192 ack 40 [0 0 0 0] ------- [2:1 1:0 32 0] [84 0] 0 1
s 151.069261378 _2_ AGT  --- 193 ack 40 [0 0 0 0] ------- [2:1 1:0 32 0] [85 0] 0 1
s 151.071187729 _1_ AGT  --- 194 tcp 1040 [0 0 0 0] ------- [1:0 2:1 32 0] [102 0] 0 1
s 151.081094079 _2_ AGT  --- 195 ack 40 [0 0 0 0] ------- [2:1 1:0 32 0] [86 0] 0 1
s 151.083100429 _1_ AGT  --- 196 tcp 1040 [0 0 0 0] ------- [1:0 2:1 32 0] [103 0] 0 1
s 151.093186779 _2_ AGT  --- 197 ack 40 [0 0 0 0] ------- [2:1 1:0 32 0] [87 0] 0 1
s 151.095293128 _1_ AGT  --- 198 tcp 1040 [0 0 0 0] ------- [1:0 2:1 32 0] [104 0] 0 1
s 151.097220260 _1_ AGT  --- 199 tcp 1040 [0 0 0 0] ------- [1:0 2:1 32 0] [105 0] 0 1
s 151.107086610 _2_ AGT  --- 200 ack 40 [0 0 0 0] ------- [2:1 1:0 32 0] [88 0] 0 1
s 151.116953741 _2_ AGT  --- 201 ack 40 [0 0 0 0] ------- [2:1 1:0 32 0] [89 0] 0 1
s 151.126900872 _2_ AGT  --- 202 ack 40 [0 0 0 0] ------- [2:1 1:0 32 0] [90 0] 0 1
s 151.136868003 _2_ AGT  --- 203 ack 40 [0 0 0 0] ------- [2:1 1:0 32 0] [91 0] 0 1
s 151.138954350 _1_ AGT  --- 204 tcp 1040 [0 0 0 0] ------- [1:0 2:1 32 0] [106 0] 0 1
s 151.149140697 _2_ AGT  --- 205 ack 40 [0 0 0 0] ------- [2:1 1:0 32 0] [92 0] 0 1
s 151.150987044 _1_ AGT  --- 206 tcp 1040 [0 0 0 0] ------- [1:0 2:1 32 0] [107 0] 0 1
s 151.152934173 _1_ AGT  --- 207 tcp 1040 [0 0 0 0] ------- [1:0 2:1 32 0] [108 0] 0 1
s 151.154981302 _1_ AGT  --- 208 tcp 1040 [0 0 0 0] ------- [1:0 2:1 32 0] [109 0] 0 1
s 151.164867648 _2_ AGT  --- 209 ack 40 [0 0 0 0] ------- [2:1 1:0 32 0] [93 0] 0 1
s 151.174994776 _2_ AGT  --- 210 ack 40 [0 0 0 0] ------- [2:1 1:0 32 0] [94 0] 0 1
s 151.176941122 _1_ AGT  --- 211 tcp 1040 [0 0 0 0] ------- [1:0 2:1 32 0] [110 0] 0 1
s 151.178868249 _1_ AGT  --- 212 tcp 1040 [0 0 0 0] ------- [1:0 2:1 32 0] [111 0] 0 1
s 151.180715376 _1_ AGT  --- 213 tcp 1040 [0 0 0 0] ------- [1:0 2:1 32 0] [112 0] 0 1
s 151.190661722 _2_ AGT  --- 214 ack 40 [0 0 0 0] ------- [2:1 1:0 32 0] [95 0] 0 1
s 151.192588067 _1_ AGT  --- 215 tcp 1040 [0 0 0 0] ------- [1:0 2:1 32 0] [113 0] 0 1
s 151.202794411 _2_ AGT  --- 216 ack 40 [0 0 0 0] ------- [2:1 1:0 32 0] [96 0] 0 1
s 151.204680756 _1_ AGT  --- 217 tcp 1040 [0 0 0 0] ------- [1:0 2:1 32 0] [114 0] 0 1
s 151.214687100 _2_ AGT  --- 218 ack 40 [0 0 0 0] ------- [2:1 1:0 32 0] [97 0] 0 1
s 151.224614225 _2_ AGT  --- 219 ack 40 [0 0 0 0] ------- [2:1 1:0 32 0] [98 0] 0 1
s 151.226480568 _1_ AGT  --- 220 tcp 1040 [0 0 0 0] ------- [1:0 2:1 32 0] [115 0] 0 1
s 151.228627692 _1_ AGT  --- 221 tcp 1040 [0 0 0 0] ------- [1:0 2:1 32 0] [116 0] 0 1
s 151.238594035 _2_ AGT  --- 222 ack 40 [0 0 0 0] ------- [2:1 1:0 32 0] [99 0] 0 1
s 151.240620378 _1_ AGT  --- 223 tcp 1040 [0 0 0 0] ------- [1:0 2:1 32 0] [117 0] 0 1
s 151.250466720 _2_ AGT  --- 224 ack 40 [0 0 0 0] ------- [2:1 1:0 32 0] [100 0] 0 1
s 151.252373062 _1_ AGT  --- 225 tcp 1040 [0 0 0 0] ------- [1:0 2:1 32 0] [118 0] 0 1
s 151.262239404 _2_ AGT  --- 226 ack 40 [0 0 0 0] ------- [2:1 1:0 32 0] [101 0] 0 1
s 151.272086526 _2_ AGT  --- 227 ack 40 [0 0 0 0] ------- [2:1 1:0 32 0] [102 0] 0 1
s 151.273952868 _1_ AGT  --- 228 tcp 1040 [0 0 0 0] ------- [1:0 2:1 32 0] [119 0] 0 1
s 151.284079208 _2_ AGT  --- 229 ack 40 [0 0 0 0] ------- [2:1 1:0 32 0] [103 0] 0 1
s 151.285925549 _1_ AGT  --- 230 tcp 1040 [0 0 0 0] ------- [1:0 2:1 32 0] [120 0] 0 1
s 151.296271889 _2_ AGT  --- 231 ack 40 [0 0 0 0] ------- [2:1 1:0 32 0] [104 0] 0 1
s 151.298178229 _1_ AGT  --- 232 tcp 1040 [0 0 0 0] ------- [1:0 2:1 32 0] [121 0] 0 1
s 151.300325349 _1_ AGT  --- 233 tcp 1040 [0 0 0 0] ------- [1:0 2:1 32 0] [122 0] 0 1
s 151.310251689 _2_ AGT  --- 234 ack 40 [0 0 0 0] ------- [2:1 1:0 32 0] [105 0] 0 1
s 151.312178028 _1_ AGT  --- 235 tcp 1040 [0 0 0 0] ------- [1:0 2:1 32 0] [123 0] 0 1
s 151.314105147 _1_ AGT  --- 236 tcp 1040 [0 0 0 0] ------- [1:0 2:1 32 0] [124 0] 0 1
s 151.315972266 _1_ AGT  --- 237 tcp 1040 [0 0 0 0] ------- [1:0 2:1 32 0] [125 0] 0 1
s 151.325898605 _2_ AGT  --- 238 ack 40 [0 0 0 0] ------- [2:1 1:0 32 0] [106 0] 0 1
s 151.336125723 _2_ AGT  --- 239 ack 40 [0 0 0 0] ------- [2:1 1:0 32 0] [107 0] 0 1
s 151.338092061 _1_ AGT  --- 240 tcp 1040 [0 0 0 0] ------- [1:0 2:1 32 0] [126 0] 0 1
s 151.348238399 _2_ AGT  --- 241 ack 40 [0 0 0 0] ------- [2:1 1:0 32 0] [108 0] 0 1
s 151.350344737 _1_ AGT  --- 242 tcp 1040 [0 0 0 0] ------- [1:0 2:1 32 0] [127 0] 0 1
s 151.360411074 _2_ AGT  --- 243 ack 40 [0 0 0 0] ------- [2:1 1:0 32 0] [109 0] 0 1
s 151.362257411 _1_ AGT  --- 244 tcp 1040 [0 0 0 0] ------- [1:0 2:1 32 0] [128 0] 0 1
s 151.364404527 _1_ AGT  --- 245 tcp 1040 [0 0 0 0] ------- [1:0 2:1 32 0] [129 0] 0 1
s 151.374490864 _2_ AGT  --- 246 ack 40 [0 0 0 0] ------- [2:1 1:0 32 0] [110 0] 0 1
s 151.376557200 _1_ AGT  --- 247 tcp 1040 [0 0 0 0] ------- [1:0 2:1 32 0] [130 0] 0 1
s 151.386623536 _2_ AGT  --- 248 ack 40 [0 0 0 0] ------- [2:1 1:0 32 0] [111 0] 0 1
s 151.388549872 _1_ AGT  --- 249 tcp 1040 [0 0 0 0] ------- [1:0 2:1 32 0] [131 0] 0 1
s 151.398876208 _2_ AGT  --- 250 ack 40 [0 0 0 0] ------- [2:1 1:0 32 0] [112 0] 0 1
s 151.400802543 _1_ AGT  --- 251 tcp 1040 [0 0 0 0] ------- [1:0 2:1 32 0] [132 0] 0 1
s 151.410828878 _2_ AGT  --- 252 ack 40 [0 0 0 0] ------- [2:1 1:0 32 0] [113 0] 0 1
s 151.412795212 _1_ AGT  --- 253 tcp 1040 [0 0 0 0] ------- [1:0 2:1 32 0] [133 0] 0 1
s 151.422821547 _2_ AGT  --- 254 ack 40 [0 0 0 0] ------- [2:1 1:0 32 0] [114 0] 0 1
s 151.424807881 _1_ AGT  --- 255 tcp 1040 [0 0 0 0] ------- [1:0 2:1 32 0] [134 0] 0 1
s 151.434734215 _2_ AGT  --- 256 ack 40 [0 0 0 0] ------- [2:1 1:0 32 0] [115 0] 0 1
s 151.436700548 _1_ AGT  --- 257 tcp 1040 [0 0 0 0] ------- [1:0 2:1 32 0] [135 0] 0 1
s 151.446866882 _2_ AGT  --- 258 ack 40 [0 0 0 0] ------- [2:1 1:0 32 0] [116 0] 0 1
s 151.457253992 _2_ AGT  --- 259 ack 40 [0 0 0 0] ------- [2:1 1:0 32 0] [117 0] 0 1
s 151.459100325 _1_ AGT  --- 260 tcp 1040 [0 0 0 0] ------- [1:0 2:1 32 0] [136 0] 0 1
s 151.469246657 _2_ AGT  --- 261 ack 40 [0 0 0 0] ------- [2:1 1:0 32 0] [118 0] 0 1
s 151.471192989 _1_ AGT  --- 262 tcp 1040 [0 0 0 0] ------- [1:0 2:1 32 0] [137 0] 0 1
s 151.473360098 _1_ AGT  --- 263 tcp 1040 [0 0 0 0] ------- [1:0 2:1 32 0] [138 0] 0 1
s 151.483326430 _2_ AGT  --- 264 ack 40 [0 0 0 0] ------- [2:1 1:0 32 0] [119 0] 0 1
s 151.493313538 _2_ AGT  --- 265 ack 40 [0 0 0 0] ------- [2:1 1:0 32 0] [120 0] 0 1
s 151.495359869 _1_ AGT  --- 266 tcp 1040 [0 0 0 0] ------- [1:0 2:1 32 0] [139 0] 0 1
s 151.505246200 _2_ AGT  --- 267 ack 40 [0 0 0 0] ------- [2:1 1:0 32 0] [121 0] 0 1
s 151.515393307 _2_ AGT  --- 268 ack 40 [0 0 0 0] ------- [2:1 1:0 32 0] [122 0] 0 1
s 151.525360413 _2_ AGT  --- 269 ack 40 [0 0 0 0] ------- [2:1 1:0 32 0] [123 0] 0 1
s 151.527266743 _1_ AGT  --- 270 tcp 1040 [0 0 0 0] ------- [1:0 2:1 32 0] [140 0] 0 1
s 151.529593848 _1_ AGT  --- 271 tcp 1040 [0 0 0 0] ------- [1:0 2:1 32 0] [141 0] 0 1
s 151.539440177 _2_ AGT  --- 272 ack 40 [0 0 0 0] ------- [2:1 1:0 32 0] [124 0] 0 1
s 151.541286506 _1_ AGT  --- 273 tcp 1040 [0 0 0 0] ------- [1:0 2:1 32 0] [142 0] 0 1
s 151.551472835 _2_ AGT  --- 274 ack 40 [0 0 0 0] ------- [2:1 1:0 32 0] [125 0] 0 1
s 151.553499163 _1_ AGT  --- 275 tcp 1040 [0 0 0 0] ------- [1:0 2:1 32 0] [143 0] 0 1
s 151.555426267 _1_ AGT  --- 276 tcp 1040 [0 0 0 0] ------- [1:0 2:1 32 0] [144 0] 0 1
s 151.557313371 _1_ AGT  --- 277 tcp 1040 [0 0 0 0] ------- [1:0 2:1 32 0] [145 0] 0 1
s 151.567359699 _2_ AGT  --- 278 ack 40 [0 0 0 0] ------- [2:1 1:0 32 0] [126 0] 0 1
s 151.577466802 _2_ AGT  --- 279 ack 40 [0 0 0 0] ------- [2:1 1:0 32 0] [127 0] 0 1
s 151.579393129 _1_ AGT  --- 280 tcp 1040 [0 0 0 0] ------- [1:0 2:1 32 0] [146 0] 0 1
s 151.589299455 _2_ AGT  --- 281 ack 40 [0 0 0 0] ------- [2:1 1:0 32 0] [128 0] 0 1
s 151.599206557 _2_ AGT  --- 282 ack 40 [0 0 0 0] ------- [2:1 1:0 32 0] [129 0] 0 1
s 151.601092883 _1_ AGT  --- 283 tcp 1040 [0 0 0 0] ------- [1:0 2:1 32 0] [147 0] 0 1
s 151.603179984 _1_ AGT  --- 284 tcp 1040 [0 0 0 0] ------- [1:0 2:1 32 0] [148 0] 0 1
s 151.613246310 _2_ AGT  --- 285 ack 40 [0 0 0 0] ------- [2:1 1:0 32 0] [130 0] 0 1
s 151.623073410 _2_ AGT  --- 286 ack 40 [0 0 0 0] ------- [2:1 1:0 32 0] [131 0] 0 1
s 151.633100510 _2_ AGT  --- 287 ack 40 [0 0 0 0] ------- [2:1 1:0 32 0] [132 0] 0 1
s 151.635066834 _1_ AGT  --- 288 tcp 1040 [0 0 0 0] ------- [1:0 2:1 32 0] [149 0] 0 1
s 151.645093159 _2_ AGT  --- 289 ack 40 [0 0 0 0] ------- [2:1 1:0 32 0] [133 0] 0 1
s 151.647199482 _1_ AGT  --- 290 tcp 1040 [0 0 0 0] ------- [1:0 2:1 32 0] [150 0] 0 1
s 151.657245806 _2_ AGT  --- 291 ack 40 [0 0 0 0] ------- [2:1 1:0 32 0] [134 0] 0 1
s 151.659392129 _1_ AGT  --- 292 tcp 1040 [0 0 0 0] ------- [1:0 2:1 32 0] [151 0] 0 1
s 151.669498452 _2_ AGT  --- 293 ack 40 [0 0 0 0] ------- [2:1 1:0 32 0] [135 0] 0 1
s 151.671404775 _1_ AGT  --- 294 tcp 1040 [0 0 0 0] ------- [1:0 2:1 32 0] [152 0] 0 1
s 151.681251098 _2_ AGT  --- 295 ack 40 [0 0 0 0] ------- [2:1 1:0 32 0] [136 0] 0 1
s 151.691378194 _2_ AGT  --- 296 ack 40 [0 0 0 0] ------- [2:1 1:0 32 0] [137 0] 0 1
s 151.693284515 _1_ AGT  --- 297 tcp 1040 [0 0 0 0] ------- [1:0 2:1 32 0] [153 0] 0 1
s 151.695311611 _1_ AGT  --- 298 tcp 1040 [0 0 0 0] ------- [1:0 2:1 32 0] [154 0] 0 1
s 151.705157932 _2_ AGT  --- 299 ack 40 [0 0 0 0] ------- [2:1 1:0 32 0] [138 0] 0 1
s 151.707404253 _1_ AGT  --- 300 tcp 1040 [0 0 0 0] ------- [1:0 2:1 32 0] [155 0] 0 1
s 151.717270574 _2_ AGT  --- 301 ack 40 [0 0 0 0] ------- [2:1 1:0 32 0] [139 0] 0 1
s 151.719156895 _1_ AGT  --- 302 tcp 1040 [0 0 0 0] ------- [1:0 2:1 32 0] [156 0] 0 1
s 151.721163988 _1_ AGT  --- 303 tcp 1040 [0 0 0 0] ------- [1:0 2:1 32 0] [157 0] 0 1
s 151.731050309 _2_ AGT  --- 304 ack 40 [0 0 0 0] ------- [2:1 1:0 32 0] [140 0] 0 1
s 151.733036629 _1_ AGT  --- 305 tcp 1040 [0 0 0 0] ------- [1:0 2:1 32 0] [158 0] 0 1
s 151.735063721 _1_ AGT  --- 306 tcp 1040 [0 0 0 0] ------- [1:0 2:1 32 0] [159 0] 0 1
s 151.744910041 _2_ AGT  --- 307 ack 40 [0 0 0 0] ------- [2:1 1:0 32 0] [141 0] 0 1
s 151.746956360 _1_ AGT  --- 308 tcp 1040 [0 0 0 0] ------- [1:0 2:1 32 0] [160 0] 0 1
s 151.757082679 _2_ AGT  --- 309 ack 40 [0 0 0 0] ------- [2:1 1:0 32 0] [142 0] 0 1
s 151.759088998 _1_ AGT  --- 310 tcp 1040 [0 0 0 0] ------- [1:0 2:1 32 0] [161 0] 0 1
s 151.768935316 _2_ AGT  --- 311 ack 40 [0 0 0 0] ------- [2:1 1:0 32 0] [143 0] 0 1
s 151.771201634 _1_ AGT  --- 312 tcp 1040 [0 0 0 0] ------- [1:0 2:1 32 0] [162 0] 0 1
s 151.781067952 _2_ AGT  --- 313 ack 40 [0 0 0 0] ------- [2:1 1:0 32 0] [144 0] 0 1
s 151.783254270 _1_ AGT  --- 314 tcp 1040 [0 0 0 0] ------- [1:0 2:1 32 0] [163 0] 0 1
s 151.793160587 _2_ AGT  --- 315 ack 40 [0 0 0 0] ------- [2:1 1:0 32 0] [145 0] 0 1
s 151.803047677 _2_ AGT  --- 316 ack 40 [0 0 0 0] ------- [2:1 1:0 32 0] [146 0] 0 1
s 151.804933993 _1_ AGT  --- 317 tcp 1040 [0 0 0 0] ------- [1:0 2:1 32 0] [164 0] 0 1
s 151.815320309 _2_ AGT  --- 318 ack 40 [0 0 0 0] ------- [2:1 1:0 32 0] [147 0] 0 1
s 151.817166625 _1_ AGT  --- 319 tcp 1040 [0 0 0 0] ------- [1:0 2:1 32 0] [165 0] 0 1
s 151.819353713 _1_ AGT  --- 320 tcp 1040 [0 0 0 0] ------- [1:0 2:1 32 0] [166 0] 0 1
s 151.829360029 _2_ AGT  --- 321 ack 40 [0 0 0 0] ------- [2:1 1:0 32 0] [148 0] 0 1
s 151.831246344 _1_ AGT  --- 322 tcp 1040 [0 0 0 0] ------- [1:0 2:1 32 0] [167 0] 0 1
s 151.841152659 _2_ AGT  --- 323 ack 40 [0 0 0 0] ------- [2:1 1:0 32 0] [149 0] 0 1
s 151.851259746 _2_ AGT  --- 324 ack 40 [0 0 0 0] ------- [2:1 1:0 32 0] [150 0] 0 1
s 151.861106831 _2_ AGT  --- 325 ack 40 [0 0 0 0] ------- [2:1 1:0 32 0] [151 0] 0 1
s 151.862953145 _1_ AGT  --- 326 tcp 1040 [0 0 0 0] ------- [1:0 2:1 32 0] [168 0] 0 1
s 151.873299459 _2_ AGT  --- 327 ack 40 [0 0 0 0] ------- [2:1 1:0 32 0] [152 0] 0 1
s 151.883186543 _2_ AGT  --- 328 ack 40 [0 0 0 0] ------- [2:1 1:0 32 0] [153 0] 0 1
s 151.885032856 _1_ AGT  --- 329 tcp 1040 [0 0 0 0] ------- [1:0 2:1 32 0] [169 0] 0 1
s 151.886999939 _1_ AGT  --- 330 tcp 1040 [0 0 0 0] ------- [1:0 2:1 32 0] [170 0] 0 1
s 151.888967023 _1_ AGT  --- 331 tcp 1040 [0 0 0 0] ------- [1:0 2:1 32 0] [171 0] 0 1
s 151.899053335 _2_ AGT  --- 332 ack 40 [0 0 0 0] ------- [2:1 1:0 32 0] [154 0] 0 1
s 151.901139648 _1_ AGT  --- 333 tcp 1040 [0 0 0 0] ------- [1:0 2:1 32 0] [172 0] 0 1
s 151.911125959 _2_ AGT  --- 334 ack 40 [0 0 0 0] ------- [2:1 1:0 32 0] [155 0] 0 1
s 151.921113041 _2_ AGT  --- 335 ack 40 [0 0 0 0] ------- [2:1 1:0 32 0] [156 0] 0 1
s 151.923019352 _1_ AGT  --- 336 tcp 1040 [0 0 0 0] ------- [1:0 2:1 32 0] [173 0] 0 1
s 151.933045663 _2_ AGT  --- 337 ack 40 [0 0 0 0] ------- [2:1 1:0 32 0] [157 0] 0 1
s 151.934971974 _1_ AGT  --- 338 tcp 1040 [0 0 0 0] ------- [1:0 2:1 32 0] [174 0] 0 1
s 151.945178284 _2_ AGT  --- 339 ack 40 [0 0 0 0] ------- [2:1 1:0 32 0] [158 0] 0 1
s 151.947104594 _1_ AGT  --- 340 tcp 1040 [0 0 0 0] ------- [1:0 2:1 32 0] [175 0] 0 1
s 151.956950904 _2_ AGT  --- 341 ack 40 [0 0 0 0] ------- [2:1 1:0 32 0] [159 0] 0 1
s 151.958797213 _1_ AGT  --- 342 tcp 1040 [0 0 0 0] ------- [1:0 2:1 32 0] [176 0] 0 1
s 151.963746293 _0_ AGT  --- 343 cbr 512 [0 0 0 0] ------- [0:0 2:0 32 0] [6] 0 2
s 151.968723523 _2_ AGT  --- 344 ack 40 [0 0 0 0] ------- [2:1 1:0 32 0] [160 0] 0 1
s 151.978610601 _2_ AGT  --- 345 ack 40 [0 0 0 0] ------- [2:1 1:0 32 0] [161 0] 0 1
s 151.988457679 _2_ AGT  --- 346 ack 40 [0 0 0 0] ------- [2:1 1:0 32 0] [162 0] 0 1
s 151.990503987 _1_ AGT  --- 347 tcp 1040 [0 0 0 0] ------- [1:0 2:1 32 0] [177 0] 0 1
s 152.000570295 _2_ AGT  --- 348 ack 40 [0 0 0 0] ------- [2:1 1:0 32 0] [163 0] 0 1
s 152.002576602 _1_ AGT  --- 349 tcp 1040 [0 0 0 0] ------- [1:0 2:1 32 0] [178 0] 0 1
s 152.004483679 _1_ AGT  --- 350 tcp 1040 [0 0 0 0] ------- [1:0 2:1 32 0] [179 0] 0 1
s 152.014329986 _2_ AGT  --- 351 ack 40 [0 0 0 0] ------- [2:1 1:0 32 0] [164 0] 0 1