s 127.937314222 _0_ MAC  --- 0 AODV 106 [0 ffffffff 0 800] ------- [0:255 -1:255 30 0] [0x2 1 1 [2 0] [0 4]] (REQUEST)
s 127.938990561 _13_ MAC  --- 0 AODV 106 [0 ffffffff d 800] ------- [13:255 -1:255 29 0] [0x2 2 1 [2 0] [0 4]] (REQUEST)
s 127.940028891 _5_ MAC  --- 0 AODV 106 [0 ffffffff 5 800] ------- [5:255 -1:255 29 0] [0x2 2 1 [2 0] [0 4]] (REQUEST)
s 127.940927490 _37_ MAC  --- 0 AODV 106 [0 ffffffff 25 800] ------- [37:255 -1:255 29 0] [0x2 2 1 [2 0] [0 4]] (REQUEST)
s 127.941825584 _18_ MAC  --- 0 AODV 106 [0 ffffffff 12 800] ------- [18:255 -1:255 28 0] [0x2 3 1 [2 0] [0 4]] (REQUEST)
s 127.942943971 _38_ MAC  --- 0 AODV 106 [0 ffffffff 26 800] ------- [38:255 -1:255 29 0] [0x2 2 1 [2 0] [0 4]] (REQUEST)
s 127.944082663 _39_ MAC  --- 0 AODV 106 [0 ffffffff 27 800] ------- [39:255 -1:255 29 0] [0x2 2 1 [2 0] [0 4]] (REQUEST)
s 127.945001345 _22_ MAC  --- 0 AODV 106 [0 ffffffff 16 800] ------- [22:255 -1:255 28 0] [0x2 3 1 [2 0] [0 4]] (REQUEST)
s 127.945939790 _45_ MAC  --- 0 AODV 106 [0 ffffffff 2d 800] ------- [45:255 -1:255 29 0] [0x2 2 1 [2 0] [0 4]] (REQUEST)
s 127.946858184 _6_ MAC  --- 0 AODV 106 [0 ffffffff 6 800] ------- [6:255 -1:255 29 0] [0x2 2 1 [2 0] [0 4]] (REQUEST)
s 127.947776584 _1_ MAC  --- 0 AODV 106 [0 ffffffff 1 800] ------- [1:255 -1:255 29 0] [0x2 2 1 [2 0] [0 4]] (REQUEST)
s 127.948694910 _41_ MAC  --- 0 AODV 106 [0 ffffffff 29 800] ------- [41:255 -1:255 29 0] [0x2 2 1 [2 0] [0 4]] (REQUEST)
s 127.948695409 _4_ MAC  --- 0 AODV 106 [0 ffffffff 4 800] ------- [4:255 -1:255 29 0] [0x2 2 1 [2 0] [0 4]] (REQUEST)
s 127.949958325 _61_ MAC  --- 0 AODV 106 [0 ffffffff 3d 800] ------- [61:255 -1:255 28 0] [0x2 3 1 [2 0] [0 4]] (REQUEST)
s 127.949978707 _49_ MAC  --- 0 AODV 106 [0 ffffffff 31 800] ------- [49:255 -1:255 29 0] [0x2 2 1 [2 0] [0 4]] (REQUEST)
s 127.949978886 _7_ MAC  --- 0 AODV 106 [0 ffffffff 7 800] ------- [7:255 -1:255 28 0] [0x2 3 1 [2 0] [0 4]] (REQUEST)
s 127.949979031 _44_ MAC  --- 0 AODV 106 [0 ffffffff 2c 800] ------- [44:255 -1:255 28 0] [0x2 3 1 [2 0] [0 4]] (REQUEST)
s 127.950876325 _58_ MAC  --- 0 AODV 106 [0 ffffffff 3a 800] ------- [58:255 -1:255 28 0] [0x2 3 1 [2 0] [0 4]] (REQUEST)
s 127.950876325 _50_ MAC  --- 0 AODV 106 [0 ffffffff 32 800] ------- [50:255 -1:255 28 0] [0x2 3 1 [2 0] [0 4]] (REQUEST)
s 127.951261640 _8_ MAC  --- 0 AODV 106 [0 ffffffff 8 800] ------- [8:255 -1:255 29 0] [0x2 2 1 [2 0] [0 4]] (REQUEST)
s 127.952220091 _9_ MAC  --- 0 AODV 106 [0 ffffffff 9 800] ------- [9:255 -1:255 29 0] [0x2 2 1 [2 0] [0 4]] (REQUEST)
s 127.952278325 _51_ MAC  --- 0 AODV 106 [0 ffffffff 33 800] ------- [51:255 -1:255 28 0] [0x2 3 1 [2 0] [0 4]] (REQUEST)
s 127.953158373 _25_ MAC  --- 0 AODV 106 [0 ffffffff 19 800] ------- [25:255 -1:255 29 0] [0x2 2 1 [2 0] [0 4]] (REQUEST)
s 127.953196325 _62_ MAC  --- 0 AODV 106 [0 ffffffff 3e 800] ------- [62:255 -1:255 28 0] [0x2 3 1 [2 0] [0 4]] (REQUEST)
s 127.954076683 _20_ MAC  --- 0 AODV 106 [0 ffffffff 14 800] ------- [20:255 -1:255 29 0] [0x2 2 1 [2 0] [0 4]] (REQUEST)
s 127.954134325 _59_ MAC  --- 0 AODV 106 [0 ffffffff 3b 800] ------- [59:255 -1:255 28 0] [0x2 3 1 [2 0] [0 4]] (REQUEST)
s 127.955055116 _15_ MAC  --- 0 AODV 106 [0 ffffffff f 800] ------- [15:255 -1:255 29 0] [0x2 2 1 [2 0] [0 4]] (REQUEST)
s 127.955192325 _56_ MAC  --- 0 AODV 106 [0 ffffffff 38 800] ------- [56:255 -1:255 28 0] [0x2 3 1 [2 0] [0 4]] (REQUEST)
s 127.956093909 _23_ MAC  --- 0 AODV 106 [0 ffffffff 17 800] ------- [23:255 -1:255 29 0] [0x2 2 1 [2 0] [0 4]] (REQUEST)
s 127.956150325 _55_ MAC  --- 0 AODV 106 [0 ffffffff 37 800] ------- [55:255 -1:255 28 0] [0x2 3 1 [2 0] [0 4]] (REQUEST)
s 127.956150325 _60_ MAC  --- 0 AODV 106 [0 ffffffff 3c 800] ------- [60:255 -1:255 28 0] [0x2 3 1 [2 0] [0 4]] (REQUEST)
s 127.957032344 _31_ MAC  --- 0 AODV 106 [0 ffffffff 1f 800] ------- [31:255 -1:255 28 0] [0x2 3 1 [2 0] [0 4]] (REQUEST)
s 127.957432325 _52_ MAC  --- 0 AODV 106 [0 ffffffff 34 800] ------- [52:255 -1:255 28 0] [0x2 3 1 [2 0] [0 4]] (REQUEST)
s 127.957432325 _57_ MAC  --- 0 AODV 106 [0 ffffffff 39 800] ------- [57:255 -1:255 28 0] [0x2 3 1 [2 0] [0 4]] (REQUEST)
s 127.957990836 _43_ MAC  --- 0 AODV 106 [0 ffffffff 2b 800] ------- [43:255 -1:255 28 0] [0x2 3 1 [2 0] [0 4]] (REQUEST)
s 127.958874325 _53_ MAC  --- 0 AODV 106 [0 ffffffff 35 800] ------- [53:255 -1:255 28 0] [0x2 3 1 [2 0] [0 4]] (REQUEST)
s 127.958874325 _54_ MAC  --- 0 AODV 106 [0 ffffffff 36 800] ------- [54:255 -1:255 28 0] [0x2 3 1 [2 0] [0 4]] (REQUEST)
s 127.958909309 _11_ MAC  --- 0 AODV 106 [0 ffffffff b 800] ------- [11:255 -1:255 29 0] [0x2 2 1 [2 0] [0 4]] (REQUEST)
s 127.959928098 _24_ MAC  --- 0 AODV 106 [0 ffffffff 18 800] ------- [24:255 -1:255 28 0] [0x2 3 1 [2 0] [0 4]] (REQUEST)
s 127.960176325 _63_ MAC  --- 0 AODV 106 [0 ffffffff 3f 800] ------- [63:255 -1:255 28 0] [0x2 3 1 [2 0] [0 4]] (REQUEST)
s 127.960846924 _46_ MAC  --- 0 AODV 106 [0 ffffffff 2e 800] ------- [46:255 -1:255 28 0] [0x2 3 1 [2 0] [0 4]] (REQUEST)
s 127.961519198 _14_ MAC  --- 0 AODV 106 [0 ffffffff e 800] ------- [14:255 -1:255 28 0] [0x2 3 1 [2 0] [0 4]] (REQUEST)
s 127.962005144 _28_ MAC  --- 0 AODV 106 [0 ffffffff 1c 800] ------- [28:255 -1:255 28 0] [0x2 3 1 [2 0] [0 4]] (REQUEST)
s 127.962457267 _36_ MAC  --- 0 AODV 106 [0 ffffffff 24 800] ------- [36:255 -1:255 28 0] [0x2 3 1 [2 0] [0 4]] (REQUEST)
s 127.963415794 _12_ MAC  --- 0 AODV 106 [0 ffffffff c 800] ------- [12:255 -1:255 29 0] [0x2 2 1 [2 0] [0 4]] (REQUEST)
s 127.964414606 _47_ MAC  --- 0 AODV 106 [0 ffffffff 2f 800] ------- [47:255 -1:255 29 0] [0x2 2 1 [2 0] [0 4]] (REQUEST)
s 127.964979181 _3_ MAC  --- 0 AODV 106 [0 ffffffff 3 800] ------- [3:255 -1:255 27 0] [0x2 4 1 [2 0] [0 4]] (REQUEST)
s 127.965692999 _27_ MAC  --- 0 AODV 106 [0 ffffffff 1b 800] ------- [27:255 -1:255 29 0] [0x2 2 1 [2 0] [0 4]] (REQUEST)
s 127.966361406 _42_ MAC  --- 0 AODV 106 [0 ffffffff 2a 800] ------- [42:255 -1:255 27 0] [0x2 4 1 [2 0] [0 4]] (REQUEST)
s 127.967545797 _35_ MAC  --- 0 AODV 106 [0 ffffffff 23 800] ------- [35:255 -1:255 27 0] [0x2 4 1 [2 0] [0 4]] (REQUEST)
s 127.968564509 _10_ MAC  --- 0 AODV 106 [0 ffffffff a 800] ------- [10:255 -1:255 28 0] [0x2 3 1 [2 0] [0 4]] (REQUEST)
s 127.969502673 _19_ MAC  --- 0 AODV 106 [0 ffffffff 13 800] ------- [19:255 -1:255 28 0] [0x2 3 1 [2 0] [0 4]] (REQUEST)
s 127.970601071 _30_ MAC  --- 0 AODV 106 [0 ffffffff 1e 800] ------- [30:255 -1:255 29 0] [0x2 2 1 [2 0] [0 4]] (REQUEST)
s 127.971559692 _34_ MAC  --- 0 AODV 106 [0 ffffffff 22 800] ------- [34:255 -1:255 29 0] [0x2 2 1 [2 0] [0 4]] (REQUEST)
s 127.972478135 _40_ MAC  --- 0 AODV 106 [0 ffffffff 28 800] ------- [40:255 -1:255 29 0] [0x2 2 1 [2 0] [0 4]] (REQUEST)
s 127.973396720 _33_ MAC  --- 0 AODV 106 [0 ffffffff 21 800] ------- [33:255 -1:255 29 0] [0x2 2 1 [2 0] [0 4]] (REQUEST)
s 127.974355525 _48_ MAC  --- 0 AODV 106 [0 ffffffff 30 800] ------- [48:255 -1:255 28 0] [0x2 3 1 [2 0] [0 4]] (REQUEST)
s 127.975354348 _16_ MAC  --- 0 AODV 106 [0 ffffffff 10 800] ------- [16:255 -1:255 29 0] [0x2 2 1 [2 0] [0 4]] (REQUEST)
s 127.976272537 _32_ MAC  --- 0 AODV 106 [0 ffffffff 20 800] ------- [32:255 -1:255 29 0] [0x2 2 1 [2 0] [0 4]] (REQUEST)
s 127.977230658 _17_ MAC  --- 0 AODV 106 [0 ffffffff 11 800] ------- [17:255 -1:255 29 0] [0x2 2 1 [2 0] [0 4]] (REQUEST)
s 127.977736284 _26_ MAC  --- 0 AODV 106 [0 ffffffff 1a 800] ------- [26:255 -1:255 27 0] [0x2 4 1 [2 0] [0 4]] (REQUEST)
s 127.979038931 _21_ MAC  --- 0 AODV 106 [0 ffffffff 15 800] ------- [21:255 -1:255 28 0] [0x2 3 1 [2 0] [0 4]] (REQUEST)
s 127.979957387 _29_ MAC  --- 0 AODV 106 [0 ffffffff 1d 800] ------- [29:255 -1:255 28 0] [0x2 3 1 [2 0] [0 4]] (REQUEST)
s 130.000595000 _0_ MAC  --- 0 AODV 106 [0 ffffffff 0 800] ------- [0:255 -1:255 30 0] [0x2 1 2 [2 0] [0 6]] (REQUEST)
s 130.001902621 _39_ MAC  --- 0 AODV 106 [0 ffffffff 27 800] ------- [39:255 -1:255 29 0] [0x2 2 2 [2 0] [0 6]] (REQUEST)
s 130.002821255 _43_ MAC  --- 0 AODV 106 [0 ffffffff 2b 800] ------- [43:255 -1:255 29 0] [0x2 2 2 [2 0] [0 6]] (REQUEST)
s 130.004200002 _16_ MAC  --- 0 AODV 106 [0 ffffffff 10 800] ------- [16:255 -1:255 29 0] [0x2 2 2 [2 0] [0 6]] (REQUEST)
s 130.005198189 _32_ MAC  --- 0 AODV 106 [0 ffffffff 20 800] ------- [32:255 -1:255 29 0] [0x2 2 2 [2 0] [0 6]] (REQUEST)
s 130.006097001 _23_ MAC  --- 0 AODV 106 [0 ffffffff 17 800] ------- [23:255 -1:255 29 0] [0x2 2 2 [2 0] [0 6]] (REQUEST)
s 130.006995294 _22_ MAC  --- 0 AODV 106 [0 ffffffff 16 800] ------- [22:255 -1:255 28 0] [0x2 3 2 [2 0] [0 6]] (REQUEST)
s 130.007973957 _12_ MAC  --- 0 AODV 106 [0 ffffffff c 800] ------- [12:255 -1:255 29 0] [0x2 2 2 [2 0] [0 6]] (REQUEST)
s 130.008892429 _34_ MAC  --- 0 AODV 106 [0 ffffffff 22 800] ------- [34:255 -1:255 29 0] [0x2 2 2 [2 0] [0 6]] (REQUEST)
s 130.009830772 _9_ MAC  --- 0 AODV 106 [0 ffffffff 9 800] ------- [9:255 -1:255 29 0] [0x2 2 2 [2 0] [0 6]] (REQUEST)
s 130.010748873 _41_ MAC  --- 0 AODV 106 [0 ffffffff 29 800] ------- [41:255 -1:255 29 0] [0x2 2 2 [2 0] [0 6]] (REQUEST)
s 130.011687105 _11_ MAC  --- 0 AODV 106 [0 ffffffff b 800] ------- [11:255 -1:255 29 0] [0x2 2 2 [2 0] [0 6]] (REQUEST)
s 130.011687257 _7_ MAC  --- 0 AODV 106 [0 ffffffff 7 800] ------- [7:255 -1:255 28 0] [0x2 3 2 [2 0] [0 6]] (REQUEST)
s 130.011687450 _24_ MAC  --- 0 AODV 106 [0 ffffffff 18 800] ------- [24:255 -1:255 28 0] [0x2 3 2 [2 0] [0 6]] (REQUEST)
s 130.012970700 _47_ MAC  --- 0 AODV 106 [0 ffffffff 2f 800] ------- [47:255 -1:255 29 0] [0x2 2 2 [2 0] [0 6]] (REQUEST)
s 130.013550492 _3_ MAC  --- 0 AODV 106 [0 ffffffff 3 800] ------- [3:255 -1:255 27 0] [0x2 4 2 [2 0] [0 6]] (REQUEST)
s 130.014269089 _27_ MAC  --- 0 AODV 106 [0 ffffffff 1b 800] ------- [27:255 -1:255 29 0] [0x2 2 2 [2 0] [0 6]] (REQUEST)
s 130.015052701 _35_ MAC  --- 0 AODV 106 [0 ffffffff 23 800] ------- [35:255 -1:255 28 0] [0x2 3 2 [2 0] [0 6]] (REQUEST)
s 130.015387764 _4_ MAC  --- 0 AODV 106 [0 ffffffff 4 800] ------- [4:255 -1:255 29 0] [0x2 2 2 [2 0] [0 6]] (REQUEST)
s 130.015991512 _28_ MAC  --- 0 AODV 106 [0 ffffffff 1c 800] ------- [28:255 -1:255 28 0] [0x2 3 2 [2 0] [0 6]] (REQUEST)
s 130.016386097 _18_ MAC  --- 0 AODV 106 [0 ffffffff 12 800] ------- [18:255 -1:255 28 0] [0x2 3 2 [2 0] [0 6]] (REQUEST)
s 130.017169717 _46_ MAC  --- 0 AODV 106 [0 ffffffff 2e 800] ------- [46:255 -1:255 28 0] [0x2 3 2 [2 0] [0 6]] (REQUEST)
s 130.017424471 _38_ MAC  --- 0 AODV 106 [0 ffffffff 26 800] ------- [38:255 -1:255 29 0] [0x2 2 2 [2 0] [0 6]] (REQUEST)
s 130.018343029 _14_ MAC  --- 0 AODV 106 [0 ffffffff e 800] ------- [14:255 -1:255 28 0] [0x2 3 2 [2 0] [0 6]] (REQUEST)
s 130.019281350 _37_ MAC  --- 0 AODV 106 [0 ffffffff 25 800] ------- [37:255 -1:255 29 0] [0x2 2 2 [2 0] [0 6]] (REQUEST)
s 130.019281553 _45_ MAC  --- 0 AODV 106 [0 ffffffff 2d 800] ------- [45:255 -1:255 29 0] [0x2 2 2 [2 0] [0 6]] (REQUEST)
s 130.020584953 _62_ MAC  --- 0 AODV 106 [0 ffffffff 3e 800] ------- [62:255 -1:255 27 0] [0x2 4 2 [2 0] [0 6]] (REQUEST)
s 130.020584953 _57_ MAC  --- 0 AODV 106 [0 ffffffff 39 800] ------- [57:255 -1:255 27 0] [0x2 4 2 [2 0] [0 6]] (REQUEST)
s 130.020704836 _25_ MAC  --- 0 AODV 106 [0 ffffffff 19 800] ------- [25:255 -1:255 29 0] [0x2 2 2 [2 0] [0 6]] (REQUEST)
s 130.021663039 _15_ MAC  --- 0 AODV 106 [0 ffffffff f 800] ------- [15:255 -1:255 29 0] [0x2 2 2 [2 0] [0 6]] (REQUEST)
s 130.022066953 _56_ MAC  --- 0 AODV 106 [0 ffffffff 38 800] ------- [56:255 -1:255 27 0] [0x2 4 2 [2 0] [0 6]] (REQUEST)
s 130.022601398 _49_ MAC  --- 0 AODV 106 [0 ffffffff 31 800] ------- [49:255 -1:255 29 0] [0x2 2 2 [2 0] [0 6]] (REQUEST)
s 130.022601738 _44_ MAC  --- 0 AODV 106 [0 ffffffff 2c 800] ------- [44:255 -1:255 28 0] [0x2 3 2 [2 0] [0 6]] (REQUEST)
s 130.023084792 _55_ MAC  --- 0 AODV 106 [0 ffffffff 37 800] ------- [55:255 -1:255 27 0] [0x2 4 2 [2 0] [0 6]] (REQUEST)
s 130.023884350 _8_ MAC  --- 0 AODV 106 [0 ffffffff 8 800] ------- [8:255 -1:255 29 0] [0x2 2 2 [2 0] [0 6]] (REQUEST)
s 130.023884949 _42_ MAC  --- 0 AODV 106 [0 ffffffff 2a 800] ------- [42:255 -1:255 28 0] [0x2 3 2 [2 0] [0 6]] (REQUEST)
s 130.024082792 _50_ MAC  --- 0 AODV 106 [0 ffffffff 32 800] ------- [50:255 -1:255 27 0] [0x2 4 2 [2 0] [0 6]] (REQUEST)
s 130.025020792 _53_ MAC  --- 0 AODV 106 [0 ffffffff 35 800] ------- [53:255 -1:255 27 0] [0x2 4 2 [2 0] [0 6]] (REQUEST)
s 130.025307952 _20_ MAC  --- 0 AODV 106 [0 ffffffff 14 800] ------- [20:255 -1:255 29 0] [0x2 2 2 [2 0] [0 6]] (REQUEST)
s 130.026098792 _58_ MAC  --- 0 AODV 106 [0 ffffffff 3a 800] ------- [58:255 -1:255 27 0] [0x2 4 2 [2 0] [0 6]] (REQUEST)
s 130.026098792 _63_ MAC  --- 0 AODV 106 [0 ffffffff 3f 800] ------- [63:255 -1:255 27 0] [0x2 4 2 [2 0] [0 6]] (REQUEST)
s 130.026266742 _31_ MAC  --- 0 AODV 106 [0 ffffffff 1f 800] ------- [31:255 -1:255 28 0] [0x2 3 2 [2 0] [0 6]] (REQUEST)
s 130.027440792 _52_ MAC  --- 0 AODV 106 [0 ffffffff 34 800] ------- [52:255 -1:255 27 0] [0x2 4 2 [2 0] [0 6]] (REQUEST)
s 130.028378792 _54_ MAC  --- 0 AODV 106 [0 ffffffff 36 800] ------- [54:255 -1:255 27 0] [0x2 4 2 [2 0] [0 6]] (REQUEST)
s 130.028378792 _61_ MAC  --- 0 AODV 106 [0 ffffffff 3d 800] ------- [61:255 -1:255 27 0] [0x2 4 2 [2 0] [0 6]] (REQUEST)
s 130.028379502 _29_ MAC  --- 0 AODV 106 [0 ffffffff 1d 800] ------- [29:255 -1:255 27 0] [0x2 4 2 [2 0] [0 6]] (REQUEST)
s 130.029662432 _19_ MAC  --- 0 AODV 106 [0 ffffffff 13 800] ------- [19:255 -1:255 28 0] [0x2 3 2 [2 0] [0 6]] (REQUEST)
s 130.029662571 _30_ MAC  --- 0 AODV 106 [0 ffffffff 1e 800] ------- [30:255 -1:255 29 0] [0x2 2 2 [2 0] [0 6]] (REQUEST)
s 130.030945030 _40_ MAC  --- 0 AODV 106 [0 ffffffff 28 800] ------- [40:255 -1:255 29 0] [0x2 2 2 [2 0] [0 6]] (REQUEST)
s 130.030945172 _13_ MAC  --- 0 AODV 106 [0 ffffffff d 800] ------- [13:255 -1:255 29 0] [0x2 2 2 [2 0] [0 6]] (REQUEST)
s 130.030945471 _48_ MAC  --- 0 AODV 106 [0 ffffffff 30 800] ------- [48:255 -1:255 28 0] [0x2 3 2 [2 0] [0 6]] (REQUEST)
s 130.032268810 _51_ MAC  --- 0 AODV 106 [0 ffffffff 33 800] ------- [51:255 -1:255 27 0] [0x2 4 2 [2 0] [0 6]] (REQUEST)
s 130.033306810 _59_ MAC  --- 0 AODV 106 [0 ffffffff 3b 800] ------- [59:255 -1:255 27 0] [0x2 4 2 [2 0] [0 6]] (REQUEST)
s 130.034424810 _60_ MAC  --- 0 AODV 106 [0 ffffffff 3c 800] ------- [60:255 -1:255 27 0] [0x2 4 2 [2 0] [0 6]] (REQUEST)
s 130.035708140 _5_ MAC  --- 0 AODV 106 [0 ffffffff 5 800] ------- [5:255 -1:255 29 0] [0x2 2 2 [2 0] [0 6]] (REQUEST)
s 130.036666685 _33_ MAC  --- 0 AODV 106 [0 ffffffff 21 800] ------- [33:255 -1:255 29 0] [0x2 2 2 [2 0] [0 6]] (REQUEST)
s 130.036666784 _17_ MAC  --- 0 AODV 106 [0 ffffffff 11 800] ------- [17:255 -1:255 29 0] [0x2 2 2 [2 0] [0 6]] (REQUEST)
s 130.037989078 _1_ MAC  --- 0 AODV 106 [0 ffffffff 1 800] ------- [1:255 -1:255 29 0] [0x2 2 2 [2 0] [0 6]] (REQUEST)
s 130.037989886 _36_ MAC  --- 0 AODV 106 [0 ffffffff 24 800] ------- [36:255 -1:255 28 0] [0x2 3 2 [2 0] [0 6]] (REQUEST)
s 130.039332460 _6_ MAC  --- 0 AODV 106 [0 ffffffff 6 800] ------- [6:255 -1:255 29 0] [0x2 2 2 [2 0] [0 6]] (REQUEST)
s 130.040675391 _10_ MAC  --- 0 AODV 106 [0 ffffffff a 800] ------- [10:255 -1:255 28 0] [0x2 3 2 [2 0] [0 6]] (REQUEST)
s 130.041614106 _21_ MAC  --- 0 AODV 106 [0 ffffffff 15 800] ------- [21:255 -1:255 27 0] [0x2 4 2 [2 0] [0 6]] (REQUEST)
s 130.049052416 _26_ MAC  --- 0 AODV 106 [0 ffffffff 1a 800] ------- [26:255 -1:255 27 0] [0x2 4 2 [2 0] [0 6]] (REQUEST)
s 134.000535000 _0_ MAC  --- 0 AODV 106 [0 ffffffff 0 800] ------- [0:255 -1:255 30 0] [0x2 1 3 [2 0] [0 8]] (REQUEST)
s 134.001977113 _49_ MAC  --- 0 AODV 106 [0 ffffffff 31 800] ------- [49:255 -1:255 29 0] [0x2 2 3 [2 0] [0 8]] (REQUEST)
s 134.002955496 _15_ MAC  --- 0 AODV 106 [0 ffffffff f 800] ------- [15:255 -1:255 29 0] [0x2 2 3 [2 0] [0 8]] (REQUEST)
s 134.003934207 _47_ MAC  --- 0 AODV 106 [0 ffffffff 2f 800] ------- [47:255 -1:255 29 0] [0x2 2 3 [2 0] [0 8]] (REQUEST)
s 134.004913017 _6_ MAC  --- 0 AODV 106 [0 ffffffff 6 800] ------- [6:255 -1:255 29 0] [0x2 2 3 [2 0] [0 8]] (REQUEST)
s 134.005831640 _17_ MAC  --- 0 AODV 106 [0 ffffffff 11 800] ------- [17:255 -1:255 29 0] [0x2 2 3 [2 0] [0 8]] (REQUEST)
s 134.006790172 _11_ MAC  --- 0 AODV 106 [0 ffffffff b 800] ------- [11:255 -1:255 29 0] [0x2 2 3 [2 0] [0 8]] (REQUEST)
s 134.006790334 _12_ MAC  --- 0 AODV 106 [0 ffffffff c 800] ------- [12:255 -1:255 29 0] [0x2 2 3 [2 0] [0 8]] (REQUEST)
s 134.006790415 _40_ MAC  --- 0 AODV 106 [0 ffffffff 28 800] ------- [40:255 -1:255 29 0] [0x2 2 3 [2 0] [0 8]] (REQUEST)
s 134.008093401 _37_ MAC  --- 0 AODV 106 [0 ffffffff 25 800] ------- [37:255 -1:255 29 0] [0x2 2 3 [2 0] [0 8]] (REQUEST)
s 134.009031640 _4_ MAC  --- 0 AODV 106 [0 ffffffff 4 800] ------- [4:255 -1:255 29 0] [0x2 2 3 [2 0] [0 8]] (REQUEST)
s 134.009950470 _1_ MAC  --- 0 AODV 106 [0 ffffffff 1 800] ------- [1:255 -1:255 29 0] [0x2 2 3 [2 0] [0 8]] (REQUEST)
s 134.010868852 _33_ MAC  --- 0 AODV 106 [0 ffffffff 21 800] ------- [33:255 -1:255 29 0] [0x2 2 3 [2 0] [0 8]] (REQUEST)
s 134.010869034 _25_ MAC  --- 0 AODV 106 [0 ffffffff 19 800] ------- [25:255 -1:255 29 0] [0x2 2 3 [2 0] [0 8]] (REQUEST)
s 134.012151904 _8_ MAC  --- 0 AODV 106 [0 ffffffff 8 800] ------- [8:255 -1:255 29 0] [0x2 2 3 [2 0] [0 8]] (REQUEST)
s 134.012352350 _62_ MAC  --- 0 AODV 106 [0 ffffffff 3e 800] ------- [62:255 -1:255 28 0] [0x2 3 3 [2 0] [0 8]] (REQUEST)
s 134.013130299 _9_ MAC  --- 0 AODV 106 [0 ffffffff 9 800] ------- [9:255 -1:255 29 0] [0x2 2 3 [2 0] [0 8]] (REQUEST)
s 134.013350350 _51_ MAC  --- 0 AODV 106 [0 ffffffff 33 800] ------- [51:255 -1:255 28 0] [0x2 3 3 [2 0] [0 8]] (REQUEST)
s 134.014228332 _20_ MAC  --- 0 AODV 106 [0 ffffffff 14 800] ------- [20:255 -1:255 29 0] [0x2 2 3 [2 0] [0 8]] (REQUEST)
s 134.014248350 _56_ MAC  --- 0 AODV 106 [0 ffffffff 38 800] ------- [56:255 -1:255 28 0] [0x2 3 3 [2 0] [0 8]] (REQUEST)
s 134.015226350 _54_ MAC  --- 0 AODV 106 [0 ffffffff 36 800] ------- [54:255 -1:255 28 0] [0x2 3 3 [2 0] [0 8]] (REQUEST)
s 134.015286611 _43_ MAC  --- 0 AODV 106 [0 ffffffff 2b 800] ------- [43:255 -1:255 29 0] [0x2 2 3 [2 0] [0 8]] (REQUEST)
s 134.016164350 _52_ MAC  --- 0 AODV 106 [0 ffffffff 34 800] ------- [52:255 -1:255 28 0] [0x2 3 3 [2 0] [0 8]] (REQUEST)
s 134.016204833 _7_ MAC  --- 0 AODV 106 [0 ffffffff 7 800] ------- [7:255 -1:255 28 0] [0x2 3 3 [2 0] [0 8]] (REQUEST)
s 134.017082350 _53_ MAC  --- 0 AODV 106 [0 ffffffff 35 800] ------- [53:255 -1:255 28 0] [0x2 3 3 [2 0] [0 8]] (REQUEST)
s 134.017123341 _28_ MAC  --- 0 AODV 106 [0 ffffffff 1c 800] ------- [28:255 -1:255 28 0] [0x2 3 3 [2 0] [0 8]] (REQUEST)
s 134.018040350 _61_ MAC  --- 0 AODV 106 [0 ffffffff 3d 800] ------- [61:255 -1:255 28 0] [0x2 3 3 [2 0] [0 8]] (REQUEST)
s 134.018061821 _44_ MAC  --- 0 AODV 106 [0 ffffffff 2c 800] ------- [44:255 -1:255 28 0] [0x2 3 3 [2 0] [0 8]] (REQUEST)
s 134.018980402 _41_ MAC  --- 0 AODV 106 [0 ffffffff 29 800] ------- [41:255 -1:255 29 0] [0x2 2 3 [2 0] [0 8]] (REQUEST)
s 134.019038350 _50_ MAC  --- 0 AODV 106 [0 ffffffff 32 800] ------- [50:255 -1:255 28 0] [0x2 3 3 [2 0] [0 8]] (REQUEST)
s 134.019938892 _24_ MAC  --- 0 AODV 106 [0 ffffffff 18 800] ------- [24:255 -1:255 28 0] [0x2 3 3 [2 0] [0 8]] (REQUEST)
s 134.019996350 _59_ MAC  --- 0 AODV 106 [0 ffffffff 3b 800] ------- [59:255 -1:255 28 0] [0x2 3 3 [2 0] [0 8]] (REQUEST)
s 134.020837334 _42_ MAC  --- 0 AODV 106 [0 ffffffff 2a 800] ------- [42:255 -1:255 28 0] [0x2 3 3 [2 0] [0 8]] (REQUEST)
s 134.021094350 _58_ MAC  --- 0 AODV 106 [0 ffffffff 3a 800] ------- [58:255 -1:255 28 0] [0x2 3 3 [2 0] [0 8]] (REQUEST)
s 134.022032350 _60_ MAC  --- 0 AODV 106 [0 ffffffff 3c 800] ------- [60:255 -1:255 28 0] [0x2 3 3 [2 0] [0 8]] (REQUEST)
s 134.022035388 _35_ MAC  --- 0 AODV 106 [0 ffffffff 23 800] ------- [35:255 -1:255 28 0] [0x2 3 3 [2 0] [0 8]] (REQUEST)
s 134.022950350 _55_ MAC  --- 0 AODV 106 [0 ffffffff 37 800] ------- [55:255 -1:255 28 0] [0x2 3 3 [2 0] [0 8]] (REQUEST)
s 134.023133594 _3_ MAC  --- 0 AODV 106 [0 ffffffff 3 800] ------- [3:255 -1:255 28 0] [0x2 3 3 [2 0] [0 8]] (REQUEST)
s 134.023888350 _63_ MAC  --- 0 AODV 106 [0 ffffffff 3f 800] ------- [63:255 -1:255 28 0] [0x2 3 3 [2 0] [0 8]] (REQUEST)
s 134.024231996 _31_ MAC  --- 0 AODV 106 [0 ffffffff 1f 800] ------- [31:255 -1:255 28 0] [0x2 3 3 [2 0] [0 8]] (REQUEST)
s 134.024846350 _57_ MAC  --- 0 AODV 106 [0 ffffffff 39 800] ------- [57:255 -1:255 28 0] [0x2 3 3 [2 0] [0 8]] (REQUEST)
s 134.025825073 _48_ MAC  --- 0 AODV 106 [0 ffffffff 30 800] ------- [48:255 -1:255 28 0] [0x2 3 3 [2 0] [0 8]] (REQUEST)
s 134.025825098 _29_ MAC  --- 0 AODV 106 [0 ffffffff 1d 800] ------- [29:255 -1:255 28 0] [0x2 3 3 [2 0] [0 8]] (REQUEST)
s 134.026806586 _46_ MAC  --- 0 AODV 106 [0 ffffffff 2e 800] ------- [46:255 -1:255 27 0] [0x2 4 3 [2 0] [0 8]] (REQUEST)
s 134.027248078 _38_ MAC  --- 0 AODV 106 [0 ffffffff 26 800] ------- [38:255 -1:255 29 0] [0x2 2 3 [2 0] [0 8]] (REQUEST)
s 134.028206429 _18_ MAC  --- 0 AODV 106 [0 ffffffff 12 800] ------- [18:255 -1:255 28 0] [0x2 3 3 [2 0] [0 8]] (REQUEST)
s 134.029144748 _14_ MAC  --- 0 AODV 106 [0 ffffffff e 800] ------- [14:255 -1:255 28 0] [0x2 3 3 [2 0] [0 8]] (REQUEST)
s 134.030852194 _36_ MAC  --- 0 AODV 106 [0 ffffffff 24 800] ------- [36:255 -1:255 28 0] [0x2 3 3 [2 0] [0 8]] (REQUEST)
s 134.031770745 _45_ MAC  --- 0 AODV 106 [0 ffffffff 2d 800] ------- [45:255 -1:255 29 0] [0x2 2 3 [2 0] [0 8]] (REQUEST)
s 134.032729287 _10_ MAC  --- 0 AODV 106 [0 ffffffff a 800] ------- [10:255 -1:255 28 0] [0x2 3 3 [2 0] [0 8]] (REQUEST)
s 134.033667454 _19_ MAC  --- 0 AODV 106 [0 ffffffff 13 800] ------- [19:255 -1:255 28 0] [0x2 3 3 [2 0] [0 8]] (REQUEST)
s 134.033668115 _5_ MAC  --- 0 AODV 106 [0 ffffffff 5 800] ------- [5:255 -1:255 29 0] [0x2 2 3 [2 0] [0 8]] (REQUEST)
s 134.034950420 _16_ MAC  --- 0 AODV 106 [0 ffffffff 10 800] ------- [16:255 -1:255 29 0] [0x2 2 3 [2 0] [0 8]] (REQUEST)
s 134.035889008 _27_ MAC  --- 0 AODV 106 [0 ffffffff 1b 800] ------- [27:255 -1:255 29 0] [0x2 2 3 [2 0] [0 8]] (REQUEST)
s 134.036987779 _39_ MAC  --- 0 AODV 106 [0 ffffffff 27 800] ------- [39:255 -1:255 29 0] [0x2 2 3 [2 0] [0 8]] (REQUEST)
s 134.039707082 _26_ MAC  --- 0 AODV 106 [0 ffffffff 1a 800] ------- [26:255 -1:255 27 0] [0x2 4 3 [2 0] [0 8]] (REQUEST)
s 134.040625884 _22_ MAC  --- 0 AODV 106 [0 ffffffff 16 800] ------- [22:255 -1:255 28 0] [0x2 3 3 [2 0] [0 8]] (REQUEST)
s 134.041544692 _34_ MAC  --- 0 AODV 106 [0 ffffffff 22 800] ------- [34:255 -1:255 29 0] [0x2 2 3 [2 0] [0 8]] (REQUEST)
s 134.042462970 _32_ MAC  --- 0 AODV 106 [0 ffffffff 20 800] ------- [32:255 -1:255 29 0] [0x2 2 3 [2 0] [0 8]] (REQUEST)
s 134.043381437 _13_ MAC  --- 0 AODV 106 [0 ffffffff d 800] ------- [13:255 -1:255 29 0] [0x2 2 3 [2 0] [0 8]] (REQUEST)
s 134.044419733 _30_ MAC  --- 0 AODV 106 [0 ffffffff 1e 800] ------- [30:255 -1:255 29 0] [0x2 2 3 [2 0] [0 8]] (REQUEST)
s 134.045397962 _23_ MAC  --- 0 AODV 106 [0 ffffffff 17 800] ------- [23:255 -1:255 29 0] [0x2 2 3 [2 0] [0 8]] (REQUEST)
s 134.047498460 _2_ MAC  --- 0 AODV 102 [13a e 2 800] ------- [2:255 0:255 30 14] [0x4 1 [2 8] 10.000000] (REPLY)
s 134.049737793 _21_ MAC  --- 0 AODV 106 [0 ffffffff 15 800] ------- [21:255 -1:255 27 0] [0x2 4 3 [2 0] [0 8]] (REQUEST)
s 134.053967207 _14_ MAC  --- 0 AODV 102 [13a 6 e 800] ------- [2:255 0:255 29 6] [0x4 2 [2 8] 10.000000] (REPLY)
s 134.059116772 _6_ MAC  --- 0 AODV 102 [13a 0 6 800] ------- [2:255 0:255 28 0] [0x4 3 [2 8] 10.000000] (REPLY)
s 150.000615000 _1_ MAC  --- 0 AODV 106 [0 ffffffff 1 800] ------- [1:255 -1:255 30 0] [0x2 1 1 [2 0] [1 4]] (REQUEST)
s 150.003400113 _12_ MAC  --- 0 AODV 106 [0 ffffffff c 800] ------- [12:255 -1:255 29 0] [0x2 2 1 [2 0] [1 4]] (REQUEST)
s 150.004318708 _37_ MAC  --- 0 AODV 106 [0 ffffffff 25 800] ------- [37:255 -1:255 29 0] [0x2 2 1 [2 0] [1 4]] (REQUEST)
s 150.005297405 _45_ MAC  --- 0 AODV 106 [0 ffffffff 2d 800] ------- [45:255 -1:255 29 0] [0x2 2 1 [2 0] [1 4]] (REQUEST)
s 150.006215678 _39_ MAC  --- 0 AODV 106 [0 ffffffff 27 800] ------- [39:255 -1:255 29 0] [0x2 2 1 [2 0] [1 4]] (REQUEST)
s 150.007133899 _16_ MAC  --- 0 AODV 106 [0 ffffffff 10 800] ------- [16:255 -1:255 29 0] [0x2 2 1 [2 0] [1 4]] (REQUEST)
s 150.007134068 _32_ MAC  --- 0 AODV 106 [0 ffffffff 20 800] ------- [32:255 -1:255 29 0] [0x2 2 1 [2 0] [1 4]] (REQUEST)
s 150.008476872 _24_ MAC  --- 0 AODV 106 [0 ffffffff 18 800] ------- [24:255 -1:255 29 0] [0x2 2 1 [2 0] [1 4]] (REQUEST)
s 150.009394927 _22_ MAC  --- 0 AODV 106 [0 ffffffff 16 800] ------- [22:255 -1:255 29 0] [0x2 2 1 [2 0] [1 4]] (REQUEST)
s 150.010333329 _23_ MAC  --- 0 AODV 106 [0 ffffffff 17 800] ------- [23:255 -1:255 29 0] [0x2 2 1 [2 0] [1 4]] (REQUEST)
s 150.011232049 _38_ MAC  --- 0 AODV 106 [0 ffffffff 26 800] ------- [38:255 -1:255 29 0] [0x2 2 1 [2 0] [1 4]] (REQUEST)
s 150.012190521 _5_ MAC  --- 0 AODV 106 [0 ffffffff 5 800] ------- [5:255 -1:255 29 0] [0x2 2 1 [2 0] [1 4]] (REQUEST)
s 150.013109013 _33_ MAC  --- 0 AODV 106 [0 ffffffff 21 800] ------- [33:255 -1:255 29 0] [0x2 2 1 [2 0] [1 4]] (REQUEST)
s 150.013109342 _15_ MAC  --- 0 AODV 106 [0 ffffffff f 800] ------- [15:255 -1:255 29 0] [0x2 2 1 [2 0] [1 4]] (REQUEST)
s 150.014392836 _48_ MAC  --- 0 AODV 106 [0 ffffffff 30 800] ------- [48:255 -1:255 28 0] [0x2 3 1 [2 0] [1 4]] (REQUEST)
s 150.014792777 _42_ MAC  --- 0 AODV 106 [0 ffffffff 2a 800] ------- [42:255 -1:255 28 0] [0x2 3 1 [2 0] [1 4]] (REQUEST)
s 150.015390978 _18_ MAC  --- 0 AODV 106 [0 ffffffff 12 800] ------- [18:255 -1:255 28 0] [0x2 3 1 [2 0] [1 4]] (REQUEST)
s 150.016369378 _36_ MAC  --- 0 AODV 106 [0 ffffffff 24 800] ------- [36:255 -1:255 28 0] [0x2 3 1 [2 0] [1 4]] (REQUEST)
s 150.017347971 _4_ MAC  --- 0 AODV 106 [0 ffffffff 4 800] ------- [4:255 -1:255 28 0] [0x2 3 1 [2 0] [1 4]] (REQUEST)
s 150.017348046 _30_ MAC  --- 0 AODV 106 [0 ffffffff 1e 800] ------- [30:255 -1:255 29 0] [0x2 2 1 [2 0] [1 4]] (REQUEST)
s 150.017348066 _19_ MAC  --- 0 AODV 106 [0 ffffffff 13 800] ------- [19:255 -1:255 28 0] [0x2 3 1 [2 0] [1 4]] (REQUEST)
s 150.018630785 _13_ MAC  --- 0 AODV 106 [0 ffffffff d 800] ------- [13:255 -1:255 29 0] [0x2 2 1 [2 0] [1 4]] (REQUEST)
s 150.021266907 _9_ MAC  --- 0 AODV 106 [0 ffffffff 9 800] ------- [9:255 -1:255 29 0] [0x2 2 1 [2 0] [1 4]] (REQUEST)
s 150.022205151 _40_ MAC  --- 0 AODV 106 [0 ffffffff 28 800] ------- [40:255 -1:255 29 0] [0x2 2 1 [2 0] [1 4]] (REQUEST)
s 150.023163955 _31_ MAC  --- 0 AODV 106 [0 ffffffff 1f 800] ------- [31:255 -1:255 28 0] [0x2 3 1 [2 0] [1 4]] (REQUEST)
s 150.023528594 _59_ MAC  --- 0 AODV 106 [0 ffffffff 3b 800] ------- [59:255 -1:255 27 0] [0x2 4 1 [2 0] [1 4]] (REQUEST)
s 150.024008452 _47_ MAC  --- 0 AODV 106 [0 ffffffff 2f 800] ------- [47:255 -1:255 28 0] [0x2 3 1 [2 0] [1 4]] (REQUEST)
s 150.024422231 _35_ MAC  --- 0 AODV 106 [0 ffffffff 23 800] ------- [35:255 -1:255 28 0] [0x2 3 1 [2 0] [1 4]] (REQUEST)
s 150.024446594 _52_ MAC  --- 0 AODV 106 [0 ffffffff 34 800] ------- [52:255 -1:255 27 0] [0x2 4 1 [2 0] [1 4]] (REQUEST)
s 150.025404594 _54_ MAC  --- 0 AODV 106 [0 ffffffff 36 800] ------- [54:255 -1:255 27 0] [0x2 4 1 [2 0] [1 4]] (REQUEST)
s 150.025480426 _3_ MAC  --- 0 AODV 106 [0 ffffffff 3 800] ------- [3:255 -1:255 28 0] [0x2 3 1 [2 0] [1 4]] (REQUEST)
s 150.026322594 _53_ MAC  --- 0 AODV 106 [0 ffffffff 35 800] ------- [53:255 -1:255 27 0] [0x2 4 1 [2 0] [1 4]] (REQUEST)
s 150.026439191 _8_ MAC  --- 0 AODV 106 [0 ffffffff 8 800] ------- [8:255 -1:255 29 0] [0x2 2 1 [2 0] [1 4]] (REQUEST)
s 150.027240594 _55_ MAC  --- 0 AODV 106 [0 ffffffff 37 800] ------- [55:255 -1:255 27 0] [0x2 4 1 [2 0] [1 4]] (REQUEST)
s 150.027417751 _11_ MAC  --- 0 AODV 106 [0 ffffffff b 800] ------- [11:255 -1:255 29 0] [0x2 2 1 [2 0] [1 4]] (REQUEST)
s 150.028158594 _57_ MAC  --- 0 AODV 106 [0 ffffffff 39 800] ------- [57:255 -1:255 27 0] [0x2 4 1 [2 0] [1 4]] (REQUEST)
s 150.028158594 _62_ MAC  --- 0 AODV 106 [0 ffffffff 3e 800] ------- [62:255 -1:255 27 0] [0x2 4 1 [2 0] [1 4]] (REQUEST)
s 150.028456571 _44_ MAC  --- 0 AODV 106 [0 ffffffff 2c 800] ------- [44:255 -1:255 28 0] [0x2 3 1 [2 0] [1 4]] (REQUEST)
s 150.029414916 _7_ MAC  --- 0 AODV 106 [0 ffffffff 7 800] ------- [7:255 -1:255 28 0] [0x2 3 1 [2 0] [1 4]] (REQUEST)
s 150.029440594 _60_ MAC  --- 0 AODV 106 [0 ffffffff 3c 800] ------- [60:255 -1:255 27 0] [0x2 4 1 [2 0] [1 4]] (REQUEST)
s 150.030353418 _46_ MAC  --- 0 AODV 106 [0 ffffffff 2e 800] ------- [46:255 -1:255 27 0] [0x2 4 1 [2 0] [1 4]] (REQUEST)
s 150.030358594 _51_ MAC  --- 0 AODV 106 [0 ffffffff 33 800] ------- [51:255 -1:255 27 0] [0x2 4 1 [2 0] [1 4]] (REQUEST)
s 150.031296594 _50_ MAC  --- 0 AODV 106 [0 ffffffff 32 800] ------- [50:255 -1:255 27 0] [0x2 4 1 [2 0] [1 4]] (REQUEST)
s 150.031451486 _28_ MAC  --- 0 AODV 106 [0 ffffffff 1c 800] ------- [28:255 -1:255 27 0] [0x2 4 1 [2 0] [1 4]] (REQUEST)
s 150.032274594 _58_ MAC  --- 0 AODV 106 [0 ffffffff 3a 800] ------- [58:255 -1:255 27 0] [0x2 4 1 [2 0] [1 4]] (REQUEST)
s 150.032774465 _25_ MAC  --- 0 AODV 106 [0 ffffffff 19 800] ------- [25:255 -1:255 29 0] [0x2 2 1 [2 0] [1 4]] (REQUEST)
s 150.033232594 _56_ MAC  --- 0 AODV 106 [0 ffffffff 38 800] ------- [56:255 -1:255 27 0] [0x2 4 1 [2 0] [1 4]] (REQUEST)
s 150.033732847 _49_ MAC  --- 0 AODV 106 [0 ffffffff 31 800] ------- [49:255 -1:255 29 0] [0x2 2 1 [2 0] [1 4]] (REQUEST)
s 150.034310594 _61_ MAC  --- 0 AODV 106 [0 ffffffff 3d 800] ------- [61:255 -1:255 27 0] [0x2 4 1 [2 0] [1 4]] (REQUEST)
s 150.034310594 _63_ MAC  --- 0 AODV 106 [0 ffffffff 3f 800] ------- [63:255 -1:255 27 0] [0x2 4 1 [2 0] [1 4]] (REQUEST)
s 150.035593947 _27_ MAC  --- 0 AODV 106 [0 ffffffff 1b 800] ------- [27:255 -1:255 29 0] [0x2 2 1 [2 0] [1 4]] (REQUEST)
s 150.036512374 _17_ MAC  --- 0 AODV 106 [0 ffffffff 11 800] ------- [17:255 -1:255 29 0] [0x2 2 1 [2 0] [1 4]] (REQUEST)
s 150.037491059 _43_ MAC  --- 0 AODV 106 [0 ffffffff 2b 800] ------- [43:255 -1:255 29 0] [0x2 2 1 [2 0] [1 4]] (REQUEST)
s 150.038489246 _20_ MAC  --- 0 AODV 106 [0 ffffffff 14 800] ------- [20:255 -1:255 29 0] [0x2 2 1 [2 0] [1 4]] (REQUEST)
s 150.038489325 _34_ MAC  --- 0 AODV 106 [0 ffffffff 22 800] ------- [34:255 -1:255 29 0] [0x2 2 1 [2 0] [1 4]] (REQUEST)